 argument  1 = example2b.nw
 argument  2 = -np
 argument  3 = 6
 


============================== echo of input deck ==============================
title "B12 LDA/20Ry - constant temperature annealing example"
echo

start b12.anneal2

scratch_dir   ./scratch
permanent_dir ./perm2

charge 0

#### icosahedral structure ####
geometry
B 1.06848703 -1.06977718 -0.27191204
B -0.41738004 -1.54046760 0.30786278
B 1.54044867 0.41755176 0.31097113
B -1.53464475 -0.41595403 -0.30802728
B 0.41455946 1.53816406 -0.30497372
B -1.06506013 1.06638042 0.26996858
B 0.69163266 -0.69066193 1.27228704
B -0.26229140 -0.90393650 -1.22051191
B 0.89747884 0.25958856 -1.21386685
B -0.69798902 0.69567491 -1.28227908
B 0.26356093 0.90344215 1.22217740
B -0.89880225 -0.26000463 1.21830395
end

nwpw
  simulation_cell
    boundary_conditions aperiodic
    SC 20.0
  end
  cutoff 10.0
  lmbfgs
  Car-Parrinello
    Nose-Hoover 250.0 3500.0 250.0 3500.0 #Tion=Telc=3500K, relaxation periods=250au
    fake_mass 500.0
    time_step 5.0
    loop 10 1000
    scaling 1.0 1.0
    emotion_filename b12.10.emotion
    xyz_filename     b12.10.xyz
  end
  rotation off
end
task pspw energy

set cpmd:init_velocities_temperature 3500.0
task pspw car-parrinello
unset cpmd:init_velocities_temperature

nwpw
  Car-Parrinello
    SA_decay 4.134d4 4.134d4              #decay rate in units of au (1au=4.1889e-17seconds)
    Nose-Hoover 250.0 3500.0 250.0 3500.0 #Tion=Telc=3500K, relaxation periods=250au
    loop 10 5000
    emotion_filename b12.11.emotion
    xyz_filename     b12.11.xyz
  end
end
task pspw car-parrinello
task pspw optimize ignore #final optimization
================================================================================


                                         
                                         
 
 
             Northwest Computational Chemistry Package (NWChem) 5.1.1
             --------------------------------------------------------
 
 
                    Environmental Molecular Sciences Laboratory
                       Pacific Northwest National Laboratory
                                Richland, WA 99352
 
                                         
                                         
 
 
                  COPYRIGHT (C) 1994, 1995, 1996, 1997, 1998, 1999,
                2000, 2001, 2002, 2003, 2004, 2005, 2006, 2007, 2008,
                                     2009, 2010
                        Pacific Northwest National Laboratory,
                             Battelle Memorial Institute.
 
                            >>> All Rights Reserved <<<
 
 
                                    DISCLAIMER
                                    ----------

            This material was prepared as an account of work sponsored
            by an agency of the United States Government.  Neither the
            United States Government nor the United States Department
            of Energy, nor Battelle, nor any of their employees, MAKES
            ANY WARRANTY, EXPRESS OR IMPLIED, OR ASSUMES ANY LEGAL
            LIABILITY OR RESPONSIBILITY FOR THE ACCURACY, COMPLETENESS,
            OR USEFULNESS OF ANY INFORMATION, APPARATUS, PRODUCT,
            SOFTWARE, OR PROCESS DISCLOSED, OR REPRESENTS THAT ITS USE
            WOULD NOT INFRINGE PRIVATELY OWNED RIGHTS.


                                    LIMITED USE
                                    -----------

            This software (including any documentation) is being made
            available to you for your internal use only, solely for use
            in performance of work directly for the U.S. Federal
            Government or work under contracts with the U.S. Department
            of Energy or other U.S. Federal Government agencies.  This
            software is a version which has not yet been evaluated and
            cleared for commercialization.  Adherence to this notice
            may be necessary for the author, Battelle Memorial
            Institute, to successfully assert copyright in and
            commercialize this software. This software is not intended
            for duplication or distribution to third parties without
            the permission of the Manager of Software Products at
            Pacific Northwest National Laboratory, Richland,
            Washington, 99352.


                                  ACKNOWLEDGMENT
                                  --------------

            This software and its documentation were produced with
            Government support under Contract Number DE-AC05-76RL01830
            awarded by the United States Department of Energy.  The
            Government retains a paid-up non-exclusive, irrevocable
            worldwide license to reproduce, prepare derivative works,
            perform publicly and display publicly by or for the
            Government, including the right to distribute to other
            Government contractors.


           Job information
           ---------------

    hostname      = seattle-1
    program       = nwchem
    date          = Tue Aug 10 16:25:23 2010

    compiled      = Wed_Jul_21_12:26:22_2010
    source        = /home/bylaska/nwchem-releases/nwchem
    nwchem branch = Development
    input         = example2b.nw
    prefix        = b12.anneal2.
    data base     = ./perm2/b12.anneal2.db
    status        = startup
    nproc         =        6
    time left     =     -1s



           Memory information
           ------------------

    heap      =   13107201 doubles =    100.0 Mbytes
    stack     =   13107201 doubles =    100.0 Mbytes
    global    =   26214400 doubles =    200.0 Mbytes (distinct from heap & stack)
    total     =   52428802 doubles =    400.0 Mbytes
    verify    = yes
    hardfail  = no 


           Directory information
           ---------------------
 
  0 permanent = ./perm2
  0 scratch   = ./scratch
 
 
 
 
                                NWChem Input Module
                                -------------------
 
 
               B12 LDA/20Ry - constant temperature annealing example
               -----------------------------------------------------

 Scaling coordinates for geometry "geometry" by  1.889725989
 (inverse scale =  0.529177249)

 C1  symmetry detected

          ------
          auto-z
          ------
  autoz: excessive number of variables                    570
                    30

 AUTOZ failed to generate good internal coordinates.
 Cartesian coordinates will be used in optimizations.

 
 
                             Geometry "geometry" -> ""
                             -------------------------
 
 Output coordinates in angstroms (scale by  1.889725989 to convert to a.u.)
 
  No.       Tag          Charge          X              Y              Z
 ---- ---------------- ---------- -------------- -------------- --------------
    1 B                    5.0000     0.93634237     0.06557939    -1.21613577
    2 B                    5.0000     0.95132923    -1.29269506    -0.25678433
    3 B                    5.0000     0.63268543     1.45622156    -0.35094518
    4 B                    5.0000    -0.62913960    -1.45053548     0.35094623
    5 B                    5.0000    -0.94926117     1.28937441     0.25929531
    6 B                    5.0000    -0.93407148    -0.06545737     1.21145744
    7 B                    5.0000     1.56679175     0.19349581     0.28601914
    8 B                    5.0000    -0.37990653    -0.91649189    -1.17951725
    9 B                    5.0000    -0.56767363     0.71479184    -1.23010020
   10 B                    5.0000    -1.57925546    -0.19597576    -0.28798885
   11 B                    5.0000     0.38187035     0.91728639     1.17989423
   12 B                    5.0000     0.57028874    -0.71559385     1.23385923
 
      Atomic Mass 
      ----------- 
 
      B                 11.009310
 

 Effective nuclear repulsion energy (a.u.)     412.2264810027

            Nuclear Dipole moment (a.u.) 
            ----------------------------
        X                 Y               Z
 ---------------- ---------------- ----------------
     0.0000000000     0.0000000000     0.0000000000
 
 
            XYZ format geometry
            -------------------
    12
 geometry
 B                     0.93634237     0.06557939    -1.21613577
 B                     0.95132923    -1.29269506    -0.25678433
 B                     0.63268543     1.45622156    -0.35094518
 B                    -0.62913960    -1.45053548     0.35094623
 B                    -0.94926117     1.28937441     0.25929531
 B                    -0.93407148    -0.06545737     1.21145744
 B                     1.56679175     0.19349581     0.28601914
 B                    -0.37990653    -0.91649189    -1.17951725
 B                    -0.56767363     0.71479184    -1.23010020
 B                    -1.57925546    -0.19597576    -0.28798885
 B                     0.38187035     0.91728639     1.17989423
 B                     0.57028874    -0.71559385     1.23385923
 
 ==============================================================================
                                internuclear distances
 ------------------------------------------------------------------------------
       center one      |      center two      | atomic units |  angstroms
 ------------------------------------------------------------------------------
    2 B                |   1 B                |     3.14257  |     1.66298
    3 B                |   1 B                |     3.14777  |     1.66573
    4 B                |   2 B                |     3.21372  |     1.70063
    5 B                |   3 B                |     3.21963  |     1.70376
    6 B                |   4 B                |     3.13484  |     1.65889
    6 B                |   5 B                |     3.12943  |     1.65602
    7 B                |   1 B                |     3.08801  |     1.63410
    7 B                |   2 B                |     3.20819  |     1.69770
    7 B                |   3 B                |     3.20293  |     1.69492
    8 B                |   1 B                |     3.10417  |     1.64266
    8 B                |   2 B                |     3.14238  |     1.66288
    8 B                |   4 B                |     3.09917  |     1.64001
    9 B                |   1 B                |     3.09577  |     1.63821
    9 B                |   3 B                |     3.14143  |     1.66238
    9 B                |   5 B                |     3.10172  |     1.64136
    9 B                |   8 B                |     3.10451  |     1.64283
   10 B                |   4 B                |     3.20969  |     1.69849
   10 B                |   5 B                |     3.21957  |     1.70372
   10 B                |   6 B                |     3.09456  |     1.63757
   10 B                |   8 B                |     3.13513  |     1.65904
   10 B                |   9 B                |     3.12826  |     1.65541
   11 B                |   3 B                |     3.10331  |     1.64220
   11 B                |   5 B                |     3.13823  |     1.66068
   11 B                |   6 B                |     3.10427  |     1.64271
   11 B                |   7 B                |     3.12058  |     1.65134
   12 B                |   2 B                |     3.10528  |     1.64325
   12 B                |   4 B                |     3.13848  |     1.66081
   12 B                |   6 B                |     3.09724  |     1.63899
   12 B                |   7 B                |     3.11539  |     1.64859
   12 B                |  11 B                |     3.10784  |     1.64460
 ------------------------------------------------------------------------------
                         number of included internuclear distances:         30
 ==============================================================================



 ==============================================================================
                                 internuclear angles
 ------------------------------------------------------------------------------
        center 1       |       center 2       |       center 3       |  degrees
 ------------------------------------------------------------------------------
    2 B                |   1 B                |   3 B                |   112.57
    2 B                |   1 B                |   7 B                |    61.98
    1 B                |   8 B                |   2 B                |    60.41
    2 B                |   1 B                |   9 B                |   109.69
    3 B                |   1 B                |   7 B                |    61.80
    3 B                |   1 B                |   8 B                |   109.97
    1 B                |   9 B                |   3 B                |    60.61
    7 B                |   1 B                |   8 B                |   109.60
    7 B                |   1 B                |   9 B                |   109.33
    8 B                |   1 B                |   9 B                |    60.10
    1 B                |   2 B                |   4 B                |   105.88
    2 B                |   1 B                |   7 B                |    61.98
    2 B                |   8 B                |   1 B                |    60.41
    1 B                |   2 B                |  12 B                |   103.55
    4 B                |   2 B                |   7 B                |   107.69
    2 B                |   8 B                |   4 B                |    61.98
    2 B                |  12 B                |   4 B                |    61.95
    7 B                |   2 B                |   8 B                |   105.64
    2 B                |  12 B                |   7 B                |    62.09
    8 B                |   2 B                |  12 B                |   103.79
    1 B                |   3 B                |   5 B                |   105.88
    3 B                |   1 B                |   7 B                |    61.80
    3 B                |   9 B                |   1 B                |    60.61
    1 B                |   3 B                |  11 B                |   103.77
    5 B                |   3 B                |   7 B                |   107.71
    3 B                |   9 B                |   5 B                |    62.09
    3 B                |  11 B                |   5 B                |    62.10
    7 B                |   3 B                |   9 B                |   105.33
    3 B                |  11 B                |   7 B                |    61.94
    9 B                |   3 B                |  11 B                |   103.67
    2 B                |   4 B                |   6 B                |   106.18
    4 B                |   8 B                |   2 B                |    61.98
    2 B                |   4 B                |  10 B                |   108.47
    4 B                |  12 B                |   2 B                |    61.95
    6 B                |   4 B                |   8 B                |   103.89
    4 B                |   6 B                |  10 B                |    62.02
    4 B                |   6 B                |  12 B                |    60.47
    4 B                |   8 B                |  10 B                |    61.97
    8 B                |   4 B                |  12 B                |   104.02
   10 B                |   4 B                |  12 B                |   106.09
    3 B                |   5 B                |   6 B                |   106.11
    5 B                |   9 B                |   3 B                |    62.09
    3 B                |   5 B                |  10 B                |   108.28
    5 B                |  11 B                |   3 B                |    62.10
    6 B                |   5 B                |   9 B                |   103.49
    5 B                |   6 B                |  10 B                |    62.30
    5 B                |   6 B                |  11 B                |    60.45
    5 B                |   9 B                |  10 B                |    62.23
    9 B                |   5 B                |  11 B                |   103.78
   10 B                |   5 B                |  11 B                |   106.21
    4 B                |   6 B                |   5 B                |   112.74
    4 B                |   6 B                |  10 B                |    62.02
    4 B                |   6 B                |  11 B                |   110.02
    4 B                |   6 B                |  12 B                |    60.47
    5 B                |   6 B                |  10 B                |    62.30
    5 B                |   6 B                |  11 B                |    60.45
    5 B                |   6 B                |  12 B                |   109.93
   10 B                |   6 B                |  11 B                |   110.22
   10 B                |   6 B                |  12 B                |   110.03
   11 B                |   6 B                |  12 B                |    60.15
    7 B                |   1 B                |   2 B                |    61.98
    7 B                |   1 B                |   3 B                |    61.80
    1 B                |   7 B                |  11 B                |   104.78
    1 B                |   7 B                |  12 B                |   104.60
    2 B                |   7 B                |   3 B                |   109.40
    2 B                |   7 B                |  11 B                |   107.26
    7 B                |  12 B                |   2 B                |    62.09
    7 B                |  11 B                |   3 B                |    61.94
    3 B                |   7 B                |  12 B                |   107.08
    7 B                |  12 B                |  11 B                |    60.19
    1 B                |   8 B                |   2 B                |    60.41
    1 B                |   8 B                |   4 B                |   109.71
    8 B                |   1 B                |   9 B                |    60.10
    1 B                |   8 B                |  10 B                |   109.37
    2 B                |   8 B                |   4 B                |    61.98
    2 B                |   8 B                |   9 B                |   109.47
    2 B                |   8 B                |  10 B                |   112.26
    4 B                |   8 B                |   9 B                |   109.55
    4 B                |   8 B                |  10 B                |    61.97
    8 B                |   9 B                |  10 B                |    60.40
    1 B                |   9 B                |   3 B                |    60.61
    1 B                |   9 B                |   5 B                |   110.15
    9 B                |   1 B                |   8 B                |    60.10
    1 B                |   9 B                |  10 B                |   109.76
    3 B                |   9 B                |   5 B                |    62.09
    3 B                |   9 B                |   8 B                |   110.12
    3 B                |   9 B                |  10 B                |   112.68
    5 B                |   9 B                |   8 B                |   110.26
    5 B                |   9 B                |  10 B                |    62.23
    8 B                |   9 B                |  10 B                |    60.40
    4 B                |  10 B                |   5 B                |   108.44
   10 B                |   6 B                |   4 B                |    62.02
   10 B                |   8 B                |   4 B                |    61.97
    4 B                |  10 B                |   9 B                |   106.18
   10 B                |   6 B                |   5 B                |    62.30
    5 B                |  10 B                |   8 B                |   106.50
   10 B                |   9 B                |   5 B                |    62.23
    6 B                |  10 B                |   8 B                |   104.00
    6 B                |  10 B                |   9 B                |   103.68
   10 B                |   9 B                |   8 B                |    60.40
    3 B                |  11 B                |   5 B                |    62.10
    3 B                |  11 B                |   6 B                |   109.67
    3 B                |  11 B                |   7 B                |    61.94
    3 B                |  11 B                |  12 B                |   109.81
   11 B                |   6 B                |   5 B                |    60.45
    5 B                |  11 B                |   7 B                |   111.92
    5 B                |  11 B                |  12 B                |   109.42
    6 B                |  11 B                |   7 B                |   108.84
   11 B                |   6 B                |  12 B                |    60.15
   11 B                |  12 B                |   7 B                |    60.19
    2 B                |  12 B                |   4 B                |    61.95
    2 B                |  12 B                |   6 B                |   109.86
    2 B                |  12 B                |   7 B                |    62.09
    2 B                |  12 B                |  11 B                |   110.21
   12 B                |   6 B                |   4 B                |    60.47
    4 B                |  12 B                |   7 B                |   112.02
    4 B                |  12 B                |  11 B                |   109.83
    6 B                |  12 B                |   7 B                |   109.16
   12 B                |   6 B                |  11 B                |    60.15
    7 B                |  12 B                |  11 B                |    60.19
 ------------------------------------------------------------------------------
                            number of included internuclear angles:        120
 ==============================================================================



          ****************************************************
          *                                                  *
          *               NWPW PSPW Calculation              *
          *                                                  *
          *  [ (Grassman/Stiefel manifold implementation) ]  *
          *                                                  *
          *      [ NorthWest Chemistry implementation ]      *
          *                                                  *
          *            version #5.10   06/12/02              *
          *                                                  *
          *    This code was developed by Eric J. Bylaska,   *
          *    and was based upon algorithms and code        *
          *    developed by the group of Prof. John H. Weare *
          *                                                  *
          ****************************************************
     >>>  JOB STARTED       AT Tue Aug 10 16:25:23 2010  <<<
          ================ input data ========================
  library name resolved from: compiled reference
  NWCHEM_NWPW_LIBRARY set to: <
 /home/bylaska/nwchem-releases/nwchem/src/nwpw/libraryps/>
 Generating 1d pseudopotential for B   
 
 Generated formatted_filename: ./perm2/B.vpp
 random planewave guess, initial psi:
 b12.anneal2.movecs                                
 -   spin, nalpha, nbeta:                     1                    18
                     0

 input psi filename:./perm2/b12.anneal2.movecs
 Warning - Gram-Schmidt being performed on psi:   18.0000000000000     
   11.1572601654313        18.0000000000000        6.84273983456871     

 number of processors used:         6
 processor grid           :   6 x   1
 parallel mapping         :   hilbert
 parallel mapping         :  balanced

 options:
      boundary conditions  = aperiodic   (version4)
      electron spin        = restricted
      exchange-correlation = LDA (Vosko et al) parameterization

 elements involved in the cluster:
      1: B     core charge:  3.0000  lmax=  2
             comment    : Hamann pseudopotential
             pseudpotential type            :   0
             highest angular component      :   2
             local potential used           :   2
             number of non-local projections:   4
             aperiodic cutoff radius        :  1.000
             cutoff =   1.100   0.900   1.100
 

 total charge:   0.000

 atomic composition:
     B   : 12

 number of electrons: spin up=    18 (  18 per task)  down=    18 (  18 per task) (fourier space)
 number of orbitals : spin up=    18 (  18 per task)  down=    18 (  18 per task) (fourier space)

 supercell:
      cell_name:  cell_default                                      
      lattice:    a1=<  20.000   0.000   0.000 >
                  a2=<   0.000  20.000   0.000 >
                  a3=<   0.000   0.000  20.000 >
      reciprocal: b1=<   0.314   0.000   0.000 >
                  b2=<   0.000   0.314   0.000 >
                  b3=<   0.000   0.000   0.314 >
      lattice:    a=      20.000 b=     20.000 c=      20.000
                  alpha=  90.000 beta=  90.000 gamma=  90.000
                  omega=      8000.0

      density cutoff= 20.000  fft= 42x 42x 42(    17133 waves     2855 per task)
      wavefnc cutoff= 10.000  fft= 42x 42x 42(     6027 waves     1004 per task)

 technical parameters:
      time step=      5.80     ficticious mass=  400000.0
      tolerance=.100E-06 (energy)   0.100E-06 (density)
      maximum iterations =    1000 (   10 inner  100 outer )





== Energy Calculation ==


          ============ Grassmann lmbfgs iteration ============
     >>>  ITERATION STARTED AT Tue Aug 10 16:25:26 2010  <<<
    iter.           Energy         DeltaE       DeltaRho 
    ------------------------------------------------------
     -  15 steepest descent iterations performed
      10   -0.3215007695E+02   -0.40801E+00    0.23059E+01
     -  10 steepest descent iterations performed
      20   -0.3334993740E+02   -0.37586E-01    0.26018E-01
     -  10 steepest descent iterations performed
      30   -0.3351000403E+02   -0.46227E-02    0.57103E-02
      40   -0.3353226131E+02   -0.14466E-02    0.95592E-03
      50   -0.3353921816E+02   -0.48997E-03    0.43605E-03
      60   -0.3354442679E+02   -0.42487E-03    0.80523E-03
      70   -0.3354781174E+02   -0.25912E-03    0.43509E-03
      80   -0.3355038321E+02   -0.16074E-03    0.55626E-03
      90   -0.3355108418E+02   -0.36283E-04    0.56190E-04
     100   -0.3355132411E+02   -0.13782E-04    0.31035E-04
     110   -0.3355143278E+02   -0.11090E-04    0.11212E-04
     120   -0.3355151241E+02   -0.34512E-05    0.17792E-04
     130   -0.3355152630E+02   -0.10113E-05    0.10505E-05
     140   -0.3355153402E+02   -0.52397E-06    0.10096E-05
     150   -0.3355153757E+02   -0.30786E-06    0.67058E-06
     160   -0.3355153955E+02   -0.78975E-07    0.28623E-06
     170   -0.3355153962E+02   -0.67811E-07    0.69489E-09
  *** tolerance ok. iteration terminated
     >>>  ITERATION ENDED   AT Tue Aug 10 16:25:55 2010  <<<


==  Summary Of Results  ==
 
 number of electrons: spin up=   18.00000  down=   18.00000 (real space)

 total     energy    :  -0.3355153962E+02 (   -0.27960E+01/ion)
 total orbital energy:  -0.1557197481E+02 (   -0.86511E+00/electron)
 hartree   energy    :   0.1703017803E+03 (    0.94612E+01/electron)
 exc-corr  energy    :  -0.1279111778E+02 (   -0.71062E+00/electron)
 ion-ion   energy    :   0.1484015332E+03 (    0.12367E+02/ion)

 kinetic (planewave) :   0.2384360112E+02 (    0.13246E+01/electron)
 V_local (planewave) :  -0.3632504281E+03 (   -0.20181E+02/electron)
 V_nl    (planewave) :  -0.5690825993E-01 (   -0.31616E-02/electron)
 V_Coul  (planewave) :   0.3406035606E+03 (    0.18922E+02/electron)
 V_xc.   (planewave) :  -0.1671180009E+02 (   -0.92843E+00/electron)
 Virial Coefficient  :  -0.1653088212E+01

 orbital energies:
    -0.1505188E+00 (  -4.096eV)
    -0.2463638E+00 (  -6.704eV)
    -0.2469362E+00 (  -6.720eV)
    -0.2503025E+00 (  -6.811eV)
    -0.3375542E+00 (  -9.185eV)
    -0.3423686E+00 (  -9.316eV)
    -0.3431299E+00 (  -9.337eV)
    -0.3439628E+00 (  -9.360eV)
    -0.3763256E+00 ( -10.240eV)
    -0.4658973E+00 ( -12.678eV)
    -0.4669827E+00 ( -12.707eV)
    -0.4776210E+00 ( -12.997eV)
    -0.4781013E+00 ( -13.010eV)
    -0.4804031E+00 ( -13.073eV)
    -0.6477701E+00 ( -17.627eV)
    -0.6521412E+00 ( -17.746eV)
    -0.6528729E+00 ( -17.766eV)
    -0.8267354E+00 ( -22.497eV)

 Total PSPW energy   :  -0.3355153962E+02


=== Spin Contamination ===
 
 <Sexact^2> =   0.000000000000000E+000
 <S^2>      =   0.000000000000000E+000
 


== Center of Charge ==

spin up     (   -0.0002,    0.0001,   -0.0002 )
spin down   (   -0.0002,    0.0001,   -0.0002 )
     total  (   -0.0002,    0.0001,   -0.0002 )
ionic       (    0.0000,    0.0000,    0.0000 )
crystal     (   -0.0009,   -0.0008,   -0.0003 )


== Crystal Dipole ==

mu   =  (   -0.0256,   -0.0328,   -0.0017 ) au
|mu| =     0.0416 au,       0.1058 Debye


== Molecular Dipole wrt Center of Mass ==

mu   =  (    0.0060,   -0.0033,    0.0083 ) au
|mu| =     0.0108 au,       0.0274 Debye

 output psi filename:./perm2/b12.anneal2.movecs


== Timing ==

cputime in seconds
  prologue    :   0.251416E+01
  main loop   :   0.290688E+02
  epilogue    :   0.164187E+00
  total       :   0.317472E+02
  cputime/step:   0.737788E-01       (     394 evalulations,     161 linesearches)


Time spent doing                        total          step
  FFTs                       :   0.645413E+01  0.163810E-01
  dot products               :   0.468412E+01  0.118886E-01
  geodesic                   :   0.479519E+01  0.121705E-01
  ffm_dgemm                  :   0.354827E+00  0.900575E-03
  fmf_dgemm                  :   0.148730E+01  0.377488E-02
  m_diagonalize              :   0.137392E-01  0.348711E-04
    - m_tredq                :   0.000000E+00  0.000000E+00
    - m_getdiags             :   0.000000E+00  0.000000E+00
    - m_tqliq                :   0.000000E+00  0.000000E+00
    - m_eigsrt               :   0.000000E+00  0.000000E+00
  exchange correlation       :   0.486242E+00  0.123412E-02
  local pseudopotentials     :   0.426888E-01  0.108347E-03
  non-local pseudopotentials :   0.286145E+01  0.726255E-02
  hartree potentials         :   0.000000E+00  0.000000E+00
  ion-ion interaction        :   0.000000E+00  0.000000E+00
  structure factors          :   0.484052E-01  0.122856E-03
  phase factors              :   0.309944E-04  0.786660E-07
  masking and packing        :   0.187740E+01  0.476496E-02
  queue fft                  :   0.124514E+02  0.316026E-01
  queue fft (serial)         :   0.693338E+01  0.175974E-01
  queue fft (message passing):   0.534092E+01  0.135556E-01
  HFX potential              :   0.000000E+00  0.000000E+00
  qmmm LJ                    :   0.000000E+00  0.000000E+00
  qmmm residual Q            :   0.000000E+00  0.000000E+00
 
     >>>  JOB COMPLETED     AT Tue Aug 10 16:25:55 2010  <<<

 Task  times  cpu:       26.4s     wall:       31.7s
 
 
                                NWChem Input Module
                                -------------------
 
 
 >>>> PSPW Parallel Module - Car-Parrinello <<<<
          ****************************************************
          *                                                  *
          *     Car-Parrinello microcluster calculation      *
          *                                                  *
          *      [   extended Lagrangian molecular   ]       *
          *      [        dynamics simulation        ]       *
          *                                                  *
          *      [ NorthWest Chemistry implementation ]      *
          *                                                  *
          *            version #5.00   06/01/99              *
          *                                                  *
          *    This code was developed by Eric J. Bylaska,   *
          *    and was based upon algorithms and code        *
          *    developed by the group of Prof. John H. Weare *
          *                                                  *
          ****************************************************
     >>>  JOB STARTED       AT Tue Aug 10 16:25:55 2010  <<<
          ================ input data ========================

 input psi filename:./perm2/b12.anneal2.movecs
 Generated initial wavefunctions velocities:
 b12.anneal2.vmovecs                               

 input vpsi filename:./perm2/b12.anneal2.vmovecs

 number of processors used:         6
 processor grid           :   6 x   1
 parallel mapping         : hilbert
 parallel mapping         : balanced

 options:
      boundary conditions  = aperiodic   (version4)
      electron spin        = restricted
      exchange-correlation = LDA (Vosko et al) parameterization

 elements involved in the cluster:
      1: B     core charge: 3.0  lmax=2
             highest angular component      :  2
             local potential used           :  2
             number of non-local projections:  4
             aperiodic cutoff radius        :  1.000
             cutoff =   1.100   0.900   1.100

 total charge=   0.000

 atomic composition:
     B   : 12

 initial position of ions:
        1 B    (    1.76943    0.12393   -2.29816 ) - atomic mass=  11.009 
        2 B    (    1.79775   -2.44284   -0.48525 ) - atomic mass=  11.009 
        3 B    (    1.19560    2.75186   -0.66319 ) - atomic mass=  11.009 
        4 B    (   -1.18890   -2.74111    0.66319 ) - atomic mass=  11.009 
        5 B    (   -1.79384    2.43656    0.49000 ) - atomic mass=  11.009 
        6 B    (   -1.76514   -0.12370    2.28932 ) - atomic mass=  11.009 
        7 B    (    2.96081    0.36565    0.54050 ) - atomic mass=  11.009 
        8 B    (   -0.71792   -1.73192   -2.22896 ) - atomic mass=  11.009 
        9 B    (   -1.07275    1.35076   -2.32455 ) - atomic mass=  11.009 
       10 B    (   -2.98436   -0.37034   -0.54422 ) - atomic mass=  11.009 
       11 B    (    0.72163    1.73342    2.22968 ) - atomic mass=  11.009 
       12 B    (    1.07769   -1.35228    2.33166 ) - atomic mass=  11.009 
        G.C.   (    0.00000    0.00000    0.00000 )
        C.O.M. (    0.00000    0.00000    0.00000 )

 initial velocity of ions:
        1 B    (    0.00032   -0.00001    0.00008 )
        2 B    (   -0.00129    0.00031    0.00089 )
        3 B    (   -0.00032   -0.00090    0.00003 )
        4 B    (   -0.00054   -0.00044    0.00034 )
        5 B    (    0.00063   -0.00098   -0.00059 )
        6 B    (    0.00002    0.00084    0.00085 )
        7 B    (   -0.00102    0.00081   -0.00068 )
        8 B    (    0.00105   -0.00045   -0.00117 )
        9 B    (    0.00018    0.00109    0.00016 )
       10 B    (    0.00013    0.00054   -0.00068 )
       11 B    (   -0.00031   -0.00043    0.00079 )
       12 B    (    0.00116   -0.00039   -0.00004 )
        G.C.   (    0.00000    0.00000    0.00000 )
        C.O.M. (    0.00000    0.00000    0.00000 )

 number of electrons: spin up=    18 (  18 per task)  down=    18 (  18 per task) (fourier space)
 number of orbitals : spin up=    18 (  18 per task)  down=    18 (  18 per task) (fourier space)

 supercell:
      lattice:    a1=<  20.000   0.000   0.000 >
                  a2=<   0.000  20.000   0.000 >
                  a3=<   0.000   0.000  20.000 >
      reciprocal: b1=<   0.314   0.000   0.000 >
                  b2=<   0.000   0.314   0.000 >
                  b3=<   0.000   0.000   0.314 >
      volume :       8000.0
      density cutoff= 20.000  fft= 42x 42x 42(    17133 waves     2855 per task)
      wavefnc cutoff= 10.000  fft= 42x 42x 42(     6027 waves     1004 per task)

 technical parameters:
      translation contrained
      rotation constrained
      time step=      5.00     ficticious mass=     500.0
      cooling/heatting rates:  0.10000E+01 (psi)   0.10000E+01 (ion)
      maximum iterations =   10000 (   10 inner 1000 outer )
      initial kinetic energy:  0.00000E+00 (psi)   0.16626E+00 (ion)
                                                   0.94406E-34 (c.o.m.)
      after scaling:           0.00000E+00 (psi)   0.16626E+00 (ion)
      increased energy:        0.00000E+00 (psi)   0.00000E+00 (ion)

 Nose-Hoover Simulation - Thermostat Parameters:
     link =   1 Te = 3500.00 Qe = 0.167E+03 2*pi/we= 0.250E+03 Ee0= 0.263E-01
     link =   1 Tr = 3500.00 Qr = 0.105E+04 2*pi/wr= 0.250E+03 Er0= 0.166E+00



          ============ Car-Parrinello iteration ==============
     >>>  ITERATION STARTED AT Tue Aug 10 16:25:57 2010  <<<
    iter.         KE+Energy             Energy        KE_psi        KE_ion   Temperature
    ------------------------------------------------------------------------------------
      10  -0.3338735804E+02  -0.3354101618E+02   0.19729E-01   0.14826E+00       3239.97
      20  -0.3338701286E+02  -0.3351935756E+02   0.26789E-01   0.17200E+00       3331.13
      30  -0.3338677476E+02  -0.3347838528E+02   0.42794E-01   0.17999E+00       3452.15
      40  -0.3338676310E+02  -0.3344039538E+02   0.39573E-01   0.16004E+00       3497.76
      50  -0.3338700619E+02  -0.3341052850E+02   0.29418E-01   0.13505E+00       3406.14
      60  -0.3338707150E+02  -0.3338730485E+02   0.24805E-01   0.14565E+00       3322.04
      70  -0.3338688664E+02  -0.3336579900E+02   0.24815E-01   0.19448E+00       3359.84
      80  -0.3338685033E+02  -0.3334655906E+02   0.25504E-01   0.21601E+00       3498.28
      90  -0.3338697578E+02  -0.3333466697E+02   0.22061E-01   0.16861E+00       3559.28
     100  -0.3338715781E+02  -0.3332844775E+02   0.19084E-01   0.13334E+00       3510.68
     110  -0.3338703641E+02  -0.3332579422E+02   0.23222E-01   0.14332E+00       3450.62
     120  -0.3338674000E+02  -0.3332259293E+02   0.32166E-01   0.18720E+00       3454.81
     130  -0.3338661537E+02  -0.3331587094E+02   0.33379E-01   0.20156E+00       3513.94
     140  -0.3338673594E+02  -0.3330805290E+02   0.26123E-01   0.15889E+00       3533.27
     150  -0.3338690524E+02  -0.3329940089E+02   0.20318E-01   0.13026E+00       3494.52
     160  -0.3338678186E+02  -0.3328985564E+02   0.21287E-01   0.14474E+00       3453.25
     170  -0.3338648213E+02  -0.3327952010E+02   0.28629E-01   0.19408E+00       3461.56
     180  -0.3338637233E+02  -0.3326825796E+02   0.33211E-01   0.20766E+00       3512.52
     190  -0.3338651327E+02  -0.3325859715E+02   0.27396E-01   0.15828E+00       3529.51
     200  -0.3338671569E+02  -0.3325128312E+02   0.22365E-01   0.12634E+00       3497.60
     210  -0.3338661854E+02  -0.3324243286E+02   0.21873E-01   0.14100E+00       3462.01
     220  -0.3338633565E+02  -0.3322960142E+02   0.25732E-01   0.19394E+00       3465.91
     230  -0.3338623913E+02  -0.3321354919E+02   0.29736E-01   0.21229E+00       3508.40
     240  -0.3338637573E+02  -0.3319936986E+02   0.29489E-01   0.15933E+00       3524.81
     250  -0.3338659239E+02  -0.3318849217E+02   0.26955E-01   0.12268E+00       3498.02
     260  -0.3338652139E+02  -0.3317809630E+02   0.25578E-01   0.13476E+00       3464.88
     270  -0.3338623227E+02  -0.3316537839E+02   0.25615E-01   0.19405E+00       3464.96
     280  -0.3338615618E+02  -0.3315212824E+02   0.26116E-01   0.22477E+00       3505.65
     290  -0.3338630278E+02  -0.3314332161E+02   0.23111E-01   0.16809E+00       3527.58
     300  -0.3338654494E+02  -0.3314499470E+02   0.24965E-01   0.12766E+00       3509.44
     310  -0.3338647016E+02  -0.3315538052E+02   0.31707E-01   0.14025E+00       3484.81
     320  -0.3338625460E+02  -0.3317167315E+02   0.33198E-01   0.19126E+00       3485.82
     330  -0.3338622271E+02  -0.3318956288E+02   0.27940E-01   0.20631E+00       3511.75
     340  -0.3338641755E+02  -0.3320286639E+02   0.21872E-01   0.15868E+00       3520.99
     350  -0.3338663569E+02  -0.3321186380E+02   0.20113E-01   0.12880E+00       3503.91
     360  -0.3338656725E+02  -0.3321750000E+02   0.23379E-01   0.14315E+00       3484.45
     370  -0.3338635007E+02  -0.3321849754E+02   0.28559E-01   0.18963E+00       3485.73
     380  -0.3338628876E+02  -0.3321554321E+02   0.30449E-01   0.20295E+00       3506.44
     390  -0.3338643446E+02  -0.3321178796E+02   0.27212E-01   0.15890E+00       3513.90
     400  -0.3338662162E+02  -0.3320931511E+02   0.24223E-01   0.13031E+00       3499.71
     410  -0.3338654788E+02  -0.3320855923E+02   0.24782E-01   0.14617E+00       3483.83
     420  -0.3338633585E+02  -0.3320966527E+02   0.27681E-01   0.19577E+00       3487.36
     430  -0.3338628071E+02  -0.3321114742E+02   0.26748E-01   0.20756E+00       3508.49
     440  -0.3338643378E+02  -0.3321456171E+02   0.22894E-01   0.16068E+00       3516.36
     450  -0.3338659924E+02  -0.3322350500E+02   0.25113E-01   0.13289E+00       3504.66
     460  -0.3338652175E+02  -0.3323530268E+02   0.30527E-01   0.14760E+00       3491.51
     470  -0.3338636313E+02  -0.3324207119E+02   0.27768E-01   0.18661E+00       3492.91
     480  -0.3338633724E+02  -0.3324196297E+02   0.22353E-01   0.19305E+00       3505.61
     490  -0.3338644286E+02  -0.3323993503E+02   0.21689E-01   0.15901E+00       3509.35
     500  -0.3338651910E+02  -0.3323814186E+02   0.25737E-01   0.13978E+00       3500.55
     510  -0.3338640891E+02  -0.3323775859E+02   0.32482E-01   0.15463E+00       3491.89
     520  -0.3338625266E+02  -0.3324187629E+02   0.34621E-01   0.18670E+00       3494.64
     530  -0.3338623366E+02  -0.3325183965E+02   0.30185E-01   0.18799E+00       3504.70
     540  -0.3338636427E+02  -0.3326351038E+02   0.23444E-01   0.15870E+00       3506.97
     550  -0.3338647372E+02  -0.3327196948E+02   0.18507E-01   0.14449E+00       3500.05
     560  -0.3338640512E+02  -0.3327769203E+02   0.18029E-01   0.16051E+00       3494.34
     570  -0.3338625985E+02  -0.3328099076E+02   0.22317E-01   0.18799E+00       3498.19
     580  -0.3338619677E+02  -0.3328039150E+02   0.29005E-01   0.18481E+00       3506.76
     590  -0.3338628689E+02  -0.3327394763E+02   0.30803E-01   0.15441E+00       3507.44
     600  -0.3338637540E+02  -0.3326434047E+02   0.27970E-01   0.13751E+00       3499.14
     610  -0.3338631777E+02  -0.3325453217E+02   0.29160E-01   0.14881E+00       3490.64
     620  -0.3338621747E+02  -0.3323486775E+02   0.29158E-01   0.17437E+00       3489.70
     630  -0.3338623396E+02  -0.3319836064E+02   0.24963E-01   0.17802E+00       3494.24
     640  -0.3338630494E+02  -0.3315833586E+02   0.24705E-01   0.15841E+00       3494.71
     650  -0.3338625484E+02  -0.3313468931E+02   0.28530E-01   0.15977E+00       3491.44
     660  -0.3338609181E+02  -0.3313789451E+02   0.28868E-01   0.19735E+00       3495.55
     670  -0.3338603471E+02  -0.3316746294E+02   0.27976E-01   0.20834E+00       3509.11
     680  -0.3338618115E+02  -0.3320171440E+02   0.24535E-01   0.16185E+00       3514.65
     690  -0.3338641588E+02  -0.3322531491E+02   0.20611E-01   0.12936E+00       3506.69
     700  -0.3338640381E+02  -0.3323912592E+02   0.19833E-01   0.13812E+00       3495.93
     710  -0.3338619405E+02  -0.3324686107E+02   0.23875E-01   0.18053E+00       3494.10
     720  -0.3338607537E+02  -0.3324831945E+02   0.28885E-01   0.20395E+00       3503.54
     730  -0.3338613726E+02  -0.3324667496E+02   0.30453E-01   0.16822E+00       3509.55
     740  -0.3338631970E+02  -0.3325004301E+02   0.32343E-01   0.13467E+00       3504.00
     750  -0.3338633465E+02  -0.3325484430E+02   0.28406E-01   0.13902E+00       3494.84
     760  -0.3338620259E+02  -0.3326072569E+02   0.25748E-01   0.17703E+00       3492.66
     770  -0.3338613822E+02  -0.3326834089E+02   0.27610E-01   0.20229E+00       3500.64
     780  -0.3338623995E+02  -0.3326763498E+02   0.22915E-01   0.17040E+00       3506.54
     790  -0.3338644661E+02  -0.3326132050E+02   0.19754E-01   0.13571E+00       3501.85
     800  -0.3338642543E+02  -0.3325414224E+02   0.24102E-01   0.13878E+00       3493.33
     810  -0.3338622361E+02  -0.3324305649E+02   0.30843E-01   0.17819E+00       3491.38
     820  -0.3338615385E+02  -0.3323024525E+02   0.31930E-01   0.20572E+00       3499.57
     830  -0.3338627757E+02  -0.3321954641E+02   0.25557E-01   0.17286E+00       3505.87
     840  -0.3338648670E+02  -0.3321851057E+02   0.23703E-01   0.14021E+00       3502.26
     850  -0.3338647070E+02  -0.3323001403E+02   0.28760E-01   0.14884E+00       3496.09
     860  -0.3338634269E+02  -0.3324243280E+02   0.26893E-01   0.18649E+00       3496.80
     870  -0.3338633362E+02  -0.3325451108E+02   0.24295E-01   0.19565E+00       3504.11
     880  -0.3338647280E+02  -0.3325902304E+02   0.20385E-01   0.15969E+00       3506.70
     890  -0.3338659595E+02  -0.3325934206E+02   0.22673E-01   0.13514E+00       3501.26
     900  -0.3338650704E+02  -0.3325780369E+02   0.32865E-01   0.14611E+00       3494.70
     910  -0.3338635238E+02  -0.3325108492E+02   0.34026E-01   0.18188E+00       3494.50
     920  -0.3338633752E+02  -0.3325039947E+02   0.30328E-01   0.19617E+00       3500.84
     930  -0.3338645381E+02  -0.3326144607E+02   0.28864E-01   0.16722E+00       3504.44
     940  -0.3338661414E+02  -0.3327253512E+02   0.23791E-01   0.14175E+00       3501.02
     950  -0.3338662801E+02  -0.3327932900E+02   0.20945E-01   0.14759E+00       3495.67
     960  -0.3338649245E+02  -0.3328586896E+02   0.25180E-01   0.17904E+00       3495.21
     970  -0.3338641505E+02  -0.3329203630E+02   0.30572E-01   0.19377E+00       3500.58
     980  -0.3338649255E+02  -0.3329254782E+02   0.25555E-01   0.16648E+00       3503.70
     990  -0.3338664596E+02  -0.3328989061E+02   0.18968E-01   0.14320E+00       3500.51
    1000  -0.3338660869E+02  -0.3328834086E+02   0.18289E-01   0.15345E+00       3496.23
    1010  -0.3338642464E+02  -0.3328947879E+02   0.24644E-01   0.18775E+00       3497.43
    1020  -0.3338632736E+02  -0.3329421853E+02   0.35076E-01   0.19620E+00       3503.76
    1030  -0.3338643927E+02  -0.3329790246E+02   0.32382E-01   0.16029E+00       3506.15
    1040  -0.3338663698E+02  -0.3329681452E+02   0.21391E-01   0.13365E+00       3501.38
    1050  -0.3338659725E+02  -0.3329887746E+02   0.21866E-01   0.14536E+00       3495.47
    1060  -0.3338640477E+02  -0.3329983894E+02   0.29451E-01   0.18537E+00       3495.57
    1070  -0.3338634606E+02  -0.3329451446E+02   0.30117E-01   0.19868E+00       3501.79
    1080  -0.3338647240E+02  -0.3329028516E+02   0.26760E-01   0.16225E+00       3504.54
    1090  -0.3338663489E+02  -0.3328688029E+02   0.23814E-01   0.13550E+00       3500.37
    1100  -0.3338658282E+02  -0.3328349603E+02   0.24802E-01   0.14635E+00       3495.00
    1110  -0.3338640349E+02  -0.3328167190E+02   0.29981E-01   0.18640E+00       3495.28
    1120  -0.3338636925E+02  -0.3327481141E+02   0.28252E-01   0.19833E+00       3501.33
    1130  -0.3338652668E+02  -0.3326366509E+02   0.23264E-01   0.15911E+00       3503.59
    1140  -0.3338668991E+02  -0.3324980403E+02   0.21100E-01   0.13164E+00       3498.91
    1150  -0.3338658358E+02  -0.3323255900E+02   0.21291E-01   0.14656E+00       3493.39
    1160  -0.3338628456E+02  -0.3322195876E+02   0.32129E-01   0.19822E+00       3494.80
    1170  -0.3338621345E+02  -0.3321668788E+02   0.36435E-01   0.21132E+00       3503.21
    1180  -0.3338642222E+02  -0.3321408075E+02   0.24078E-01   0.15835E+00       3506.28
    1190  -0.3338664681E+02  -0.3322682624E+02   0.25616E-01   0.12900E+00       3501.28
    1200  -0.3338655434E+02  -0.3324130192E+02   0.27176E-01   0.14666E+00       3495.81
    1210  -0.3338637158E+02  -0.3324865985E+02   0.23082E-01   0.19264E+00       3496.78
    1220  -0.3338631848E+02  -0.3325415372E+02   0.23310E-01   0.20037E+00       3503.12
    1230  -0.3338644743E+02  -0.3325397296E+02   0.22773E-01   0.15723E+00       3505.06
    1240  -0.3338657958E+02  -0.3325002895E+02   0.24134E-01   0.13183E+00       3500.57
    1250  -0.3338646692E+02  -0.3324528352E+02   0.28532E-01   0.14856E+00       3495.74
    1260  -0.3338626528E+02  -0.3323985054E+02   0.30469E-01   0.19265E+00       3496.83
    1270  -0.3338620989E+02  -0.3323865517E+02   0.31402E-01   0.19844E+00       3502.73
    1280  -0.3338635546E+02  -0.3324391363E+02   0.31153E-01   0.15510E+00       3504.25
    1290  -0.3338653706E+02  -0.3324392609E+02   0.22896E-01   0.12971E+00       3499.59
    1300  -0.3338647749E+02  -0.3324392503E+02   0.21358E-01   0.14783E+00       3494.69
    1310  -0.3338626529E+02  -0.3324624169E+02   0.26945E-01   0.19764E+00       3496.08
    1320  -0.3338621531E+02  -0.3324631503E+02   0.27916E-01   0.20571E+00       3502.91
    1330  -0.3338638984E+02  -0.3324735774E+02   0.24312E-01   0.15753E+00       3505.09
    1340  -0.3338657293E+02  -0.3325060700E+02   0.22553E-01   0.13155E+00       3500.87
    1350  -0.3338648278E+02  -0.3325416369E+02   0.22838E-01   0.15100E+00       3496.55
    1360  -0.3338627920E+02  -0.3326298939E+02   0.29999E-01   0.19739E+00       3498.19
    1370  -0.3338624821E+02  -0.3326875560E+02   0.29992E-01   0.19804E+00       3504.02
    1380  -0.3338644452E+02  -0.3327249461E+02   0.24743E-01   0.15189E+00       3505.00
    1390  -0.3338659384E+02  -0.3328390087E+02   0.28920E-01   0.13155E+00       3500.57
    1400  -0.3338650929E+02  -0.3329662957E+02   0.30241E-01   0.15343E+00       3496.67
    1410  -0.3338638994E+02  -0.3331148842E+02   0.27841E-01   0.19584E+00       3498.36
    1420  -0.3338639854E+02  -0.3332702547E+02   0.24289E-01   0.19491E+00       3503.49
    1430  -0.3338658548E+02  -0.3333807249E+02   0.19181E-01   0.15524E+00       3504.49
    1440  -0.3338670443E+02  -0.3335109897E+02   0.23345E-01   0.13728E+00       3500.97
    1450  -0.3338662751E+02  -0.3335981630E+02   0.29304E-01   0.15448E+00       3497.76
    1460  -0.3338650151E+02  -0.3336451689E+02   0.30625E-01   0.18649E+00       3498.70
    1470  -0.3338649871E+02  -0.3337371209E+02   0.31095E-01   0.18697E+00       3502.22
    1480  -0.3338666516E+02  -0.3337417645E+02   0.22024E-01   0.15461E+00       3502.71
    1490  -0.3338679948E+02  -0.3337223170E+02   0.20986E-01   0.13703E+00       3499.33
    1500  -0.3338672032E+02  -0.3336436530E+02   0.24851E-01   0.15172E+00       3496.01
    1510  -0.3338656842E+02  -0.3334588507E+02   0.27325E-01   0.18469E+00       3496.54
    1520  -0.3338654229E+02  -0.3332505506E+02   0.31122E-01   0.18991E+00       3500.08
    1530  -0.3338666040E+02  -0.3330114230E+02   0.26716E-01   0.15790E+00       3501.06
    1540  -0.3338675635E+02  -0.3328313684E+02   0.24788E-01   0.13953E+00       3498.15
    1550  -0.3338662390E+02  -0.3327397990E+02   0.26539E-01   0.16144E+00       3495.70
    1560  -0.3338644427E+02  -0.3327079437E+02   0.26259E-01   0.20368E+00       3498.35
    1570  -0.3338640435E+02  -0.3327700673E+02   0.27461E-01   0.19581E+00       3503.58
    1580  -0.3338655709E+02  -0.3328633867E+02   0.26113E-01   0.15084E+00       3504.16
    1590  -0.3338666862E+02  -0.3329655250E+02   0.25758E-01   0.13306E+00       3500.35
    1600  -0.3338655294E+02  -0.3330520817E+02   0.25170E-01   0.15537E+00       3497.21
    1610  -0.3338637072E+02  -0.3331212941E+02   0.25814E-01   0.19445E+00       3498.73
    1620  -0.3338630943E+02  -0.3331792131E+02   0.27798E-01   0.19043E+00       3502.78
    1630  -0.3338643061E+02  -0.3331949758E+02   0.25791E-01   0.15147E+00       3503.12
    1640  -0.3338651875E+02  -0.3332191312E+02   0.25703E-01   0.13581E+00       3499.70
    1650  -0.3338640194E+02  -0.3332309260E+02   0.25570E-01   0.15769E+00       3496.99
    1660  -0.3338624301E+02  -0.3332354310E+02   0.26689E-01   0.19425E+00       3498.61
    1670  -0.3338620787E+02  -0.3332266380E+02   0.27220E-01   0.18888E+00       3502.38
    1680  -0.3338633309E+02  -0.3332306692E+02   0.27553E-01   0.15201E+00       3502.64
    1690  -0.3338642297E+02  -0.3332092204E+02   0.24195E-01   0.13730E+00       3499.48
    1700  -0.3338631777E+02  -0.3331972357E+02   0.24362E-01   0.15876E+00       3497.02
    1710  -0.3338616751E+02  -0.3331915077E+02   0.28258E-01   0.19419E+00       3498.65
    1720  -0.3338615659E+02  -0.3331664886E+02   0.29316E-01   0.18738E+00       3502.20
    1730  -0.3338630611E+02  -0.3331508338E+02   0.27820E-01   0.15030E+00       3502.25
    1740  -0.3338640316E+02  -0.3331556255E+02   0.26789E-01   0.13622E+00       3499.01
    1750  -0.3338630516E+02  -0.3331633336E+02   0.26023E-01   0.15913E+00       3496.58
    1760  -0.3338617903E+02  -0.3331718167E+02   0.25786E-01   0.19721E+00       3498.37
    1770  -0.3338618844E+02  -0.3331885059E+02   0.24086E-01   0.19273E+00       3502.35
    1780  -0.3338634489E+02  -0.3332357659E+02   0.22996E-01   0.15556E+00       3503.04
    1790  -0.3338643984E+02  -0.3333025789E+02   0.24568E-01   0.14060E+00       3500.46
    1800  -0.3338635291E+02  -0.3333588266E+02   0.27153E-01   0.15876E+00       3498.36
    1810  -0.3338624218E+02  -0.3333989961E+02   0.29654E-01   0.18653E+00       3499.40
    1820  -0.3338625029E+02  -0.3334361735E+02   0.30686E-01   0.18112E+00       3501.81
    1830  -0.3338638983E+02  -0.3334521273E+02   0.26158E-01   0.15286E+00       3501.71
    1840  -0.3338649253E+02  -0.3334453202E+02   0.22522E-01   0.14244E+00       3499.24
    1850  -0.3338641355E+02  -0.3334537059E+02   0.26162E-01   0.16126E+00       3497.48
    1860  -0.3338632438E+02  -0.3333917333E+02   0.26990E-01   0.18709E+00       3498.67
    1870  -0.3338635569E+02  -0.3332983947E+02   0.26953E-01   0.18024E+00       3500.98
    1880  -0.3338648661E+02  -0.3331819582E+02   0.24816E-01   0.15288E+00       3500.82
    1890  -0.3338654447E+02  -0.3330985812E+02   0.25443E-01   0.14590E+00       3498.61
    1900  -0.3338645091E+02  -0.3330289652E+02   0.25399E-01   0.16918E+00       3497.55
    1910  -0.3338634473E+02  -0.3330087256E+02   0.26615E-01   0.19618E+00       3499.73
    1920  -0.3338635589E+02  -0.3330991756E+02   0.32114E-01   0.18271E+00       3502.61
    1930  -0.3338651857E+02  -0.3331526994E+02   0.24718E-01   0.15007E+00       3502.35
    1940  -0.3338661846E+02  -0.3332442108E+02   0.23299E-01   0.14187E+00       3499.79
    1950  -0.3338652041E+02  -0.3333519173E+02   0.27374E-01   0.16434E+00       3498.28
    1960  -0.3338641762E+02  -0.3334275952E+02   0.28141E-01   0.19056E+00       3499.82
    1970  -0.3338643476E+02  -0.3335175730E+02   0.28192E-01   0.17973E+00       3502.15
    1980  -0.3338657885E+02  -0.3335529488E+02   0.24062E-01   0.14915E+00       3501.73
    1990  -0.3338664981E+02  -0.3335495096E+02   0.23024E-01   0.13979E+00       3499.10
    2000  -0.3338652813E+02  -0.3335219768E+02   0.25858E-01   0.16222E+00       3497.37
    2010  -0.3338639374E+02  -0.3334658695E+02   0.27718E-01   0.19373E+00       3498.92
    2020  -0.3338639095E+02  -0.3333955131E+02   0.25500E-01   0.18577E+00       3501.76
    2030  -0.3338651614E+02  -0.3333823565E+02   0.27527E-01   0.15248E+00       3501.85
    2040  -0.3338658732E+02  -0.3333575138E+02   0.27649E-01   0.13933E+00       3499.41
    2050  -0.3338650280E+02  -0.3333099143E+02   0.26984E-01   0.15683E+00       3497.40
    2060  -0.3338638439E+02  -0.3332777014E+02   0.29528E-01   0.18781E+00       3498.25
    2070  -0.3338639397E+02  -0.3331767393E+02   0.24917E-01   0.18594E+00       3500.75
    2080  -0.3338652167E+02  -0.3331023560E+02   0.24457E-01   0.15567E+00       3501.08
    2090  -0.3338658672E+02  -0.3330191114E+02   0.23551E-01   0.14276E+00       3499.03
    2100  -0.3338648271E+02  -0.3329348786E+02   0.23547E-01   0.16269E+00       3497.53
    2110  -0.3338634266E+02  -0.3328924711E+02   0.28451E-01   0.19433E+00       3499.04
    2120  -0.3338633162E+02  -0.3328500628E+02   0.28471E-01   0.18689E+00       3501.84
    2130  -0.3338646612E+02  -0.3328670946E+02   0.27203E-01   0.15397E+00       3502.05
    2140  -0.3338654351E+02  -0.3329220265E+02   0.25964E-01   0.14276E+00       3499.96
    2150  -0.3338646388E+02  -0.3330116021E+02   0.27026E-01   0.16257E+00       3498.52
    2160  -0.3338635797E+02  -0.3331027462E+02   0.27305E-01   0.18929E+00       3499.73
    2170  -0.3338636424E+02  -0.3332105439E+02   0.27777E-01   0.18140E+00       3501.88
    2180  -0.3338650886E+02  -0.3332422350E+02   0.21941E-01   0.15206E+00       3501.76
    2190  -0.3338658953E+02  -0.3332607178E+02   0.22652E-01   0.14172E+00       3499.60
    2200  -0.3338649849E+02  -0.3332149102E+02   0.25631E-01   0.15938E+00       3498.01
    2210  -0.3338638331E+02  -0.3330865663E+02   0.28020E-01   0.18408E+00       3498.75
    2220  -0.3338638077E+02  -0.3329314628E+02   0.30875E-01   0.17905E+00       3500.49
    2230  -0.3338649105E+02  -0.3327832449E+02   0.29880E-01   0.15311E+00       3500.33
    2240  -0.3338655350E+02  -0.3327057428E+02   0.27772E-01   0.14637E+00       3498.50
    2250  -0.3338646506E+02  -0.3327238994E+02   0.27172E-01   0.17210E+00       3497.76
    2260  -0.3338638102E+02  -0.3328856652E+02   0.30571E-01   0.19980E+00       3499.97
    2270  -0.3338643715E+02  -0.3330471535E+02   0.26379E-01   0.17767E+00       3502.33
    2280  -0.3338665897E+02  -0.3330951423E+02   0.19844E-01   0.13917E+00       3501.30
    2290  -0.3338673433E+02  -0.3330361603E+02   0.18765E-01   0.13028E+00       3498.07
    2300  -0.3338655716E+02  -0.3328541588E+02   0.22191E-01   0.15832E+00       3495.94
    2310  -0.3338635920E+02  -0.3325586856E+02   0.30170E-01   0.19990E+00       3497.45
    2320  -0.3338635493E+02  -0.3322422233E+02   0.32933E-01   0.19325E+00       3500.66
    2330  -0.3338650747E+02  -0.3320777064E+02   0.27677E-01   0.15574E+00       3501.16
    2340  -0.3338657206E+02  -0.3321512203E+02   0.26675E-01   0.14914E+00       3499.57
    2350  -0.3338645183E+02  -0.3323998463E+02   0.28444E-01   0.17725E+00       3499.28
    2360  -0.3338636466E+02  -0.3326923651E+02   0.26197E-01   0.19461E+00       3501.41
    2370  -0.3338642362E+02  -0.3329416524E+02   0.21762E-01   0.16964E+00       3502.91
    2380  -0.3338655778E+02  -0.3331165905E+02   0.19200E-01   0.14370E+00       3501.78
    2390  -0.3338653496E+02  -0.3332311437E+02   0.21534E-01   0.14609E+00       3499.68
    2400  -0.3338638000E+02  -0.3332772764E+02   0.27375E-01   0.17197E+00       3499.08
    2410  -0.3338627434E+02  -0.3332367169E+02   0.29434E-01   0.18737E+00       3500.55
    2420  -0.3338627636E+02  -0.3332198631E+02   0.33167E-01   0.16800E+00       3501.65
    2430  -0.3338637271E+02  -0.3332709740E+02   0.35949E-01   0.14376E+00       3500.54
    2440  -0.3338641421E+02  -0.3332608375E+02   0.25847E-01   0.14138E+00       3498.29
    2450  -0.3338634668E+02  -0.3331746638E+02   0.20095E-01   0.16563E+00       3497.15
    2460  -0.3338624768E+02  -0.3330387903E+02   0.21624E-01   0.19339E+00       3498.56
    2470  -0.3338624821E+02  -0.3328827480E+02   0.24200E-01   0.18389E+00       3500.72
    2480  -0.3338634507E+02  -0.3327529688E+02   0.23391E-01   0.15679E+00       3500.89
    2490  -0.3338635085E+02  -0.3327355313E+02   0.25938E-01   0.15383E+00       3499.72
    2500  -0.3338626113E+02  -0.3328093552E+02   0.30474E-01   0.17526E+00       3499.60
    2510  -0.3338622755E+02  -0.3328488211E+02   0.26926E-01   0.18316E+00       3500.95
    2520  -0.3338629466E+02  -0.3328737842E+02   0.26852E-01   0.16117E+00       3501.46
    2530  -0.3338637833E+02  -0.3328902067E+02   0.31003E-01   0.14249E+00       3500.05
    2540  -0.3338635831E+02  -0.3328423458E+02   0.27805E-01   0.14844E+00       3498.16
    2550  -0.3338626412E+02  -0.3327578535E+02   0.24001E-01   0.17621E+00       3497.88
    2560  -0.3338621926E+02  -0.3326769857E+02   0.24675E-01   0.19300E+00       3499.70
    2570  -0.3338628960E+02  -0.3325983431E+02   0.25516E-01   0.17146E+00       3501.12
    2580  -0.3338642330E+02  -0.3325006519E+02   0.24331E-01   0.14532E+00       3500.25
    2590  -0.3338642671E+02  -0.3323860003E+02   0.24180E-01   0.14627E+00       3498.37
    2600  -0.3338628157E+02  -0.3322785080E+02   0.27150E-01   0.17571E+00       3497.94
    2610  -0.3338618787E+02  -0.3321987141E+02   0.28351E-01   0.19943E+00       3499.99
    2620  -0.3338623218E+02  -0.3322266471E+02   0.27690E-01   0.18031E+00       3502.05
    2630  -0.3338637696E+02  -0.3323784144E+02   0.27834E-01   0.15234E+00       3501.83
    2640  -0.3338643213E+02  -0.3325932056E+02   0.28338E-01   0.14859E+00       3500.37
    2650  -0.3338638684E+02  -0.3328065769E+02   0.27980E-01   0.16495E+00       3499.61
    2660  -0.3338635362E+02  -0.3329309680E+02   0.23454E-01   0.17785E+00       3500.19
    2670  -0.3338639088E+02  -0.3329812598E+02   0.21454E-01   0.16963E+00       3500.86
    2680  -0.3338643933E+02  -0.3330203890E+02   0.25338E-01   0.15648E+00       3500.51
    2690  -0.3338643605E+02  -0.3330409243E+02   0.28965E-01   0.15714E+00       3499.65
    2700  -0.3338638423E+02  -0.3330642296E+02   0.27862E-01   0.17155E+00       3499.52
    2710  -0.3338635607E+02  -0.3331400381E+02   0.26765E-01   0.18103E+00       3500.44
    2720  -0.3338638823E+02  -0.3332491095E+02   0.26313E-01   0.17079E+00       3501.26
    2730  -0.3338645991E+02  -0.3333695849E+02   0.27125E-01   0.15530E+00       3500.91
    2740  -0.3338649202E+02  -0.3334453759E+02   0.25626E-01   0.15251E+00       3499.84
    2750  -0.3338645628E+02  -0.3334509731E+02   0.22652E-01   0.16434E+00       3499.22
    2760  -0.3338638816E+02  -0.3334409729E+02   0.25471E-01   0.17711E+00       3499.67
    2770  -0.3338637622E+02  -0.3334198343E+02   0.29191E-01   0.17410E+00       3500.49
    2780  -0.3338643529E+02  -0.3333573600E+02   0.25121E-01   0.16043E+00       3500.51
    2790  -0.3338646360E+02  -0.3333330686E+02   0.24327E-01   0.15650E+00       3499.80
    2800  -0.3338641106E+02  -0.3333327986E+02   0.27145E-01   0.16710E+00       3499.45
    2810  -0.3338635359E+02  -0.3333171588E+02   0.28395E-01   0.17641E+00       3499.97
    2820  -0.3338635656E+02  -0.3333331261E+02   0.30081E-01   0.17034E+00       3500.57
    2830  -0.3338640770E+02  -0.3333505491E+02   0.26604E-01   0.15892E+00       3500.37
    2840  -0.3338642505E+02  -0.3334319773E+02   0.27019E-01   0.15910E+00       3499.74
    2850  -0.3338639056E+02  -0.3335124262E+02   0.25919E-01   0.16941E+00       3499.62
    2860  -0.3338639080E+02  -0.3335166653E+02   0.21058E-01   0.17394E+00       3500.11
    2870  -0.3338641092E+02  -0.3335205373E+02   0.22027E-01   0.16809E+00       3500.47
    2880  -0.3338640886E+02  -0.3335178324E+02   0.26327E-01   0.16181E+00       3500.32
    2890  -0.3338638098E+02  -0.3335159085E+02   0.31328E-01   0.16225E+00       3499.98
    2900  -0.3338637472E+02  -0.3334826833E+02   0.29939E-01   0.16453E+00       3499.80
    2910  -0.3338640590E+02  -0.3334210048E+02   0.26428E-01   0.16334E+00       3499.64
    2920  -0.3338642830E+02  -0.3333688820E+02   0.27038E-01   0.16272E+00       3499.39
    2930  -0.3338643389E+02  -0.3332871509E+02   0.25794E-01   0.16532E+00       3499.22
    2940  -0.3338643369E+02  -0.3332039707E+02   0.25211E-01   0.16982E+00       3499.33
    2950  -0.3338643373E+02  -0.3331670964E+02   0.27581E-01   0.17181E+00       3499.70
    2960  -0.3338646504E+02  -0.3330978888E+02   0.23698E-01   0.16786E+00       3499.97
    2970  -0.3338650609E+02  -0.3330304794E+02   0.21579E-01   0.16353E+00       3499.89
    2980  -0.3338648731E+02  -0.3329699060E+02   0.23837E-01   0.16500E+00       3499.72
    2990  -0.3338644040E+02  -0.3329308929E+02   0.30460E-01   0.17023E+00       3499.83
    3000  -0.3338641995E+02  -0.3328671825E+02   0.28067E-01   0.17165E+00       3500.20
    3010  -0.3338642129E+02  -0.3329006829E+02   0.27704E-01   0.16873E+00       3500.47
    3020  -0.3338642095E+02  -0.3330193331E+02   0.28782E-01   0.16655E+00       3500.55
    3030  -0.3338643132E+02  -0.3331589367E+02   0.27139E-01   0.16496E+00       3500.51
    3040  -0.3338644379E+02  -0.3332675198E+02   0.24079E-01   0.16340E+00       3500.36
    3050  -0.3338643316E+02  -0.3333718921E+02   0.25573E-01   0.16390E+00       3500.16
    3060  -0.3338640668E+02  -0.3334177727E+02   0.25143E-01   0.16538E+00       3500.06
    3070  -0.3338638789E+02  -0.3334045739E+02   0.24514E-01   0.16467E+00       3499.99
    3080  -0.3338636646E+02  -0.3333636384E+02   0.27366E-01   0.16268E+00       3499.80
    3090  -0.3338634513E+02  -0.3332640507E+02   0.27190E-01   0.16221E+00       3499.53
    3100  -0.3338631727E+02  -0.3331600805E+02   0.27901E-01   0.16465E+00       3499.33
    3110  -0.3338628787E+02  -0.3330362416E+02   0.26717E-01   0.16756E+00       3499.34
    3120  -0.3338627971E+02  -0.3329231470E+02   0.27480E-01   0.16714E+00       3499.44
    3130  -0.3338628401E+02  -0.3328028862E+02   0.27118E-01   0.16415E+00       3499.40
    3140  -0.3338629912E+02  -0.3326408551E+02   0.23395E-01   0.16280E+00       3499.18
    3150  -0.3338628212E+02  -0.3324652315E+02   0.22347E-01   0.16646E+00       3499.06
    3160  -0.3338622469E+02  -0.3323088942E+02   0.26763E-01   0.17179E+00       3499.29
    3170  -0.3338619195E+02  -0.3321841694E+02   0.31608E-01   0.17187E+00       3499.70
    3180  -0.3338621152E+02  -0.3321070190E+02   0.30731E-01   0.16556E+00       3499.86
    3190  -0.3338625627E+02  -0.3320870193E+02   0.27705E-01   0.16054E+00       3499.60
    3200  -0.3338627940E+02  -0.3320551659E+02   0.23304E-01   0.16309E+00       3499.28
    3210  -0.3338627011E+02  -0.3320219739E+02   0.22686E-01   0.17136E+00       3499.36
    3220  -0.3338624947E+02  -0.3320034786E+02   0.24395E-01   0.17619E+00       3499.91
    3230  -0.3338626097E+02  -0.3319927784E+02   0.24222E-01   0.17168E+00       3500.44
    3240  -0.3338628669E+02  -0.3320202447E+02   0.24684E-01   0.16507E+00       3500.54
    3250  -0.3338628940E+02  -0.3320928991E+02   0.27142E-01   0.16478E+00       3500.41
    3260  -0.3338627934E+02  -0.3321811967E+02   0.27393E-01   0.16920E+00       3500.46
    3270  -0.3338627487E+02  -0.3323109425E+02   0.28567E-01   0.17045E+00       3500.73
    3280  -0.3338629903E+02  -0.3324791456E+02   0.30610E-01   0.16515E+00       3500.84
    3290  -0.3338634979E+02  -0.3326541901E+02   0.29754E-01   0.15889E+00       3500.52
    3300  -0.3338638828E+02  -0.3328336960E+02   0.27814E-01   0.15910E+00       3500.02
    3310  -0.3338641143E+02  -0.3329541912E+02   0.23956E-01   0.16498E+00       3499.76
    3320  -0.3338642805E+02  -0.3330227896E+02   0.22314E-01   0.17001E+00       3499.88
    3330  -0.3338645516E+02  -0.3330278370E+02   0.21472E-01   0.16855E+00       3500.10
    3340  -0.3338647790E+02  -0.3330090968E+02   0.23845E-01   0.16436E+00       3500.09
    3350  -0.3338648032E+02  -0.3329885929E+02   0.28533E-01   0.16415E+00       3499.93
    3360  -0.3338648228E+02  -0.3329643713E+02   0.29677E-01   0.16750E+00       3499.91
    3370  -0.3338650129E+02  -0.3329787306E+02   0.28256E-01   0.16992E+00       3500.09
    3380  -0.3338653359E+02  -0.3330300006E+02   0.25733E-01   0.16890E+00       3500.30
    3390  -0.3338656619E+02  -0.3331489226E+02   0.28013E-01   0.16624E+00       3500.37
    3400  -0.3338658789E+02  -0.3333205767E+02   0.31341E-01   0.16404E+00       3500.29
    3410  -0.3338663282E+02  -0.3334572187E+02   0.28299E-01   0.16055E+00       3500.04
    3420  -0.3338669243E+02  -0.3334865888E+02   0.22419E-01   0.15755E+00       3499.57
    3430  -0.3338671060E+02  -0.3334127811E+02   0.18625E-01   0.16205E+00       3499.14
    3440  -0.3338665899E+02  -0.3333174506E+02   0.19366E-01   0.17517E+00       3499.30
    3450  -0.3338659800E+02  -0.3332495232E+02   0.23994E-01   0.18292E+00       3500.19
    3460  -0.3338659094E+02  -0.3332074305E+02   0.30943E-01   0.17173E+00       3500.92
    3470  -0.3338665246E+02  -0.3331720330E+02   0.34525E-01   0.15306E+00       3500.60
    3480  -0.3338670618E+02  -0.3331247033E+02   0.30028E-01   0.14580E+00       3499.48
    3490  -0.3338668440E+02  -0.3330598156E+02   0.26112E-01   0.15762E+00       3498.54
    3500  -0.3338659546E+02  -0.3330084325E+02   0.26994E-01   0.18105E+00       3498.80
    3510  -0.3338656771E+02  -0.3329546319E+02   0.25833E-01   0.18601E+00       3500.02
    3520  -0.3338664271E+02  -0.3329091611E+02   0.23677E-01   0.16454E+00       3500.56
    3530  -0.3338671408E+02  -0.3328728468E+02   0.23697E-01   0.14831E+00       3499.83
    3540  -0.3338666845E+02  -0.3327973126E+02   0.23648E-01   0.15527E+00       3498.87
    3550  -0.3338654972E+02  -0.3326893382E+02   0.25037E-01   0.17805E+00       3498.95
    3560  -0.3338648616E+02  -0.3325857926E+02   0.29509E-01   0.18518E+00       3500.04
    3570  -0.3338653762E+02  -0.3324862725E+02   0.30002E-01   0.16413E+00       3500.55
    3580  -0.3338662593E+02  -0.3323741156E+02   0.24284E-01   0.14660E+00       3499.75
    3590  -0.3338658667E+02  -0.3322839587E+02   0.22643E-01   0.15535E+00       3498.75
    3600  -0.3338645611E+02  -0.3321981303E+02   0.25275E-01   0.18214E+00       3498.96
    3610  -0.3338640746E+02  -0.3320905257E+02   0.26742E-01   0.18880E+00       3500.29
    3620  -0.3338648076E+02  -0.3319899871E+02   0.26692E-01   0.16363E+00       3500.87
    3630  -0.3338657473E+02  -0.3318946677E+02   0.25651E-01   0.14469E+00       3500.00
    3640  -0.3338652702E+02  -0.3318123190E+02   0.26092E-01   0.15399E+00       3498.91
    3650  -0.3338639153E+02  -0.3317948991E+02   0.31923E-01   0.18296E+00       3499.10
    3660  -0.3338635591E+02  -0.3318388467E+02   0.33149E-01   0.19027E+00       3500.51
    3670  -0.3338648380E+02  -0.3318859443E+02   0.25018E-01   0.16223E+00       3501.07
    3680  -0.3338663918E+02  -0.3319126439E+02   0.19306E-01   0.14276E+00       3500.10
    3690  -0.3338660259E+02  -0.3319346385E+02   0.20991E-01   0.15403E+00       3498.97
    3700  -0.3338646757E+02  -0.3319540678E+02   0.28904E-01   0.18412E+00       3499.21
    3710  -0.3338645212E+02  -0.3319093195E+02   0.29379E-01   0.18858E+00       3500.58
    3720  -0.3338658763E+02  -0.3318423267E+02   0.24271E-01   0.15957E+00       3500.99
    3730  -0.3338669802E+02  -0.3318072182E+02   0.22489E-01   0.14408E+00       3499.99
    3740  -0.3338660457E+02  -0.3318287182E+02   0.26370E-01   0.16163E+00       3499.14
    3750  -0.3338647542E+02  -0.3319713906E+02   0.37812E-01   0.19153E+00       3499.87
    3760  -0.3338649244E+02  -0.3321110169E+02   0.31497E-01   0.18199E+00       3501.23
    3770  -0.3338673071E+02  -0.3322007427E+02   0.20770E-01   0.14866E+00       3501.04
    3780  -0.3338683521E+02  -0.3323064773E+02   0.21595E-01   0.13999E+00       3499.63
    3790  -0.3338672147E+02  -0.3324212299E+02   0.28840E-01   0.16367E+00       3498.78
    3800  -0.3338661567E+02  -0.3324969187E+02   0.30069E-01   0.19251E+00       3499.62
    3810  -0.3338666337E+02  -0.3325420716E+02   0.25195E-01   0.18119E+00       3500.93
    3820  -0.3338682369E+02  -0.3325993350E+02   0.22828E-01   0.15137E+00       3500.80
    3830  -0.3338688418E+02  -0.3326646151E+02   0.24010E-01   0.14462E+00       3499.64
    3840  -0.3338679031E+02  -0.3327038678E+02   0.24937E-01   0.16676E+00       3499.02
    3850  -0.3338669416E+02  -0.3327280529E+02   0.25822E-01   0.19112E+00       3499.88
    3860  -0.3338669969E+02  -0.3327505355E+02   0.25478E-01   0.18017E+00       3501.08
    3870  -0.3338679987E+02  -0.3327957157E+02   0.26200E-01   0.15334E+00       3501.00
    3880  -0.3338683490E+02  -0.3328506311E+02   0.28511E-01   0.14550E+00       3499.94
    3890  -0.3338676170E+02  -0.3328691651E+02   0.29076E-01   0.15955E+00       3499.17
    3900  -0.3338668937E+02  -0.3327988876E+02   0.26573E-01   0.17534E+00       3499.34
    3910  -0.3338668058E+02  -0.3326532778E+02   0.23716E-01   0.17284E+00       3499.83
    3920  -0.3338667980E+02  -0.3325782460E+02   0.24451E-01   0.16666E+00       3499.95
    3930  -0.3338661760E+02  -0.3326645079E+02   0.25049E-01   0.17657E+00       3500.20
    3940  -0.3338653377E+02  -0.3329403739E+02   0.28401E-01   0.18629E+00       3501.12
    3950  -0.3338652968E+02  -0.3332766402E+02   0.30350E-01   0.17061E+00       3501.83
    3960  -0.3338662896E+02  -0.3335278888E+02   0.26013E-01   0.14703E+00       3501.33
    3970  -0.3338667521E+02  -0.3336833201E+02   0.23629E-01   0.14143E+00       3500.04
    3980  -0.3338658934E+02  -0.3337380718E+02   0.24875E-01   0.15760E+00       3499.12
    3990  -0.3338647795E+02  -0.3336796704E+02   0.27503E-01   0.17781E+00       3499.30
    4000  -0.3338645244E+02  -0.3335516008E+02   0.29414E-01   0.17544E+00       3499.96
    4010  -0.3338650764E+02  -0.3334076987E+02   0.27409E-01   0.15748E+00       3499.93
    4020  -0.3338652829E+02  -0.3332675555E+02   0.23226E-01   0.15231E+00       3499.22
    4030  -0.3338644538E+02  -0.3331197668E+02   0.20705E-01   0.16826E+00       3498.88
    4040  -0.3338633920E+02  -0.3329753495E+02   0.25283E-01   0.18401E+00       3499.52
    4050  -0.3338632911E+02  -0.3327834255E+02   0.31021E-01   0.17156E+00       3500.22
    4060  -0.3338640226E+02  -0.3325468864E+02   0.29274E-01   0.14826E+00       3499.79
    4070  -0.3338639029E+02  -0.3323507540E+02   0.26364E-01   0.14770E+00       3498.70
    4080  -0.3338622919E+02  -0.3322160807E+02   0.25622E-01   0.17748E+00       3498.50
    4090  -0.3338611535E+02  -0.3321682293E+02   0.27837E-01   0.20189E+00       3499.93
    4100  -0.3338614924E+02  -0.3321797208E+02   0.27691E-01   0.17650E+00       3501.23
    4110  -0.3338631428E+02  -0.3321833940E+02   0.24172E-01   0.14145E+00       3500.68
    4120  -0.3338634188E+02  -0.3321603921E+02   0.23645E-01   0.13720E+00       3499.14
    4130  -0.3338618080E+02  -0.3320892056E+02   0.26992E-01   0.16552E+00       3498.35
    4140  -0.3338606883E+02  -0.3319254956E+02   0.28980E-01   0.19359E+00       3499.23
    4150  -0.3338611798E+02  -0.3316830883E+02   0.26416E-01   0.17562E+00       3500.30
    4160  -0.3338625360E+02  -0.3314521556E+02   0.23135E-01   0.14546E+00       3499.85
    4170  -0.3338621959E+02  -0.3312910917E+02   0.22146E-01   0.14972E+00       3498.74
    4180  -0.3338600614E+02  -0.3312758618E+02   0.28964E-01   0.19045E+00       3498.96
    4190  -0.3338591689E+02  -0.3313700286E+02   0.33667E-01   0.20663E+00       3500.90
    4200  -0.3338605323E+02  -0.3314966564E+02   0.27385E-01   0.16393E+00       3501.86
    4210  -0.3338628095E+02  -0.3316452086E+02   0.23187E-01   0.13303E+00       3500.73
    4220  -0.3338626448E+02  -0.3317773266E+02   0.22941E-01   0.14314E+00       3499.18
    4230  -0.3338609285E+02  -0.3318789653E+02   0.25687E-01   0.18311E+00       3499.08
    4240  -0.3338602237E+02  -0.3319395522E+02   0.28299E-01   0.19871E+00       3500.59
    4250  -0.3338613708E+02  -0.3319531443E+02   0.27000E-01   0.16276E+00       3501.32
    4260  -0.3338632207E+02  -0.3319064807E+02   0.23048E-01   0.13336E+00       3500.22
    4270  -0.3338628599E+02  -0.3318341243E+02   0.23193E-01   0.14216E+00       3498.66
    4280  -0.3338607639E+02  -0.3317742395E+02   0.29743E-01   0.18547E+00       3498.57
    4290  -0.3338600663E+02  -0.3317202373E+02   0.31960E-01   0.20688E+00       3500.36
    4300  -0.3338614028E+02  -0.3317135237E+02   0.27380E-01   0.16751E+00       3501.42
    4310  -0.3338636242E+02  -0.3317491928E+02   0.23301E-01   0.13501E+00       3500.46
    4320  -0.3338635499E+02  -0.3317862823E+02   0.22594E-01   0.14316E+00       3498.99
    4330  -0.3338617638E+02  -0.3318231452E+02   0.27106E-01   0.18314E+00       3498.88
    4340  -0.3338610589E+02  -0.3318305413E+02   0.29780E-01   0.20081E+00       3500.41
    4350  -0.3338622625E+02  -0.3318069123E+02   0.26228E-01   0.16457E+00       3501.23
    4360  -0.3338641463E+02  -0.3317816985E+02   0.24068E-01   0.13440E+00       3500.22
    4370  -0.3338639141E+02  -0.3317283940E+02   0.25029E-01   0.14090E+00       3498.71
    4380  -0.3338622576E+02  -0.3315903888E+02   0.26805E-01   0.17657E+00       3498.37
    4390  -0.3338617849E+02  -0.3313401608E+02   0.26375E-01   0.19612E+00       3499.58
    4400  -0.3338627815E+02  -0.3310313688E+02   0.22185E-01   0.16868E+00       3500.40
    4410  -0.3338635298E+02  -0.3308643990E+02   0.26463E-01   0.14698E+00       3499.81
    4420  -0.3338623152E+02  -0.3308903547E+02   0.33371E-01   0.16629E+00       3499.23
    4430  -0.3338609534E+02  -0.3311085305E+02   0.30993E-01   0.20250E+00       3500.26
    4440  -0.3338610591E+02  -0.3314565333E+02   0.25940E-01   0.18906E+00       3501.87
    4450  -0.3338631164E+02  -0.3317831930E+02   0.22397E-01   0.14811E+00       3501.84
    4460  -0.3338642914E+02  -0.3320439845E+02   0.23235E-01   0.13387E+00       3500.47
    4470  -0.3338633727E+02  -0.3322108963E+02   0.24337E-01   0.15382E+00       3499.34
    4480  -0.3338618606E+02  -0.3323112980E+02   0.26854E-01   0.18700E+00       3499.65
    4490  -0.3338614487E+02  -0.3323804656E+02   0.30384E-01   0.18597E+00       3500.79
    4500  -0.3338626180E+02  -0.3324203428E+02   0.29231E-01   0.15362E+00       3500.90
    4510  -0.3338636938E+02  -0.3324107546E+02   0.23045E-01   0.13812E+00       3499.79
    4520  -0.3338628171E+02  -0.3324086779E+02   0.22479E-01   0.15774E+00       3498.85
    4530  -0.3338611859E+02  -0.3324343078E+02   0.27510E-01   0.19484E+00       3499.43
    4540  -0.3338609485E+02  -0.3324638474E+02   0.29525E-01   0.19191E+00       3500.92
    4550  -0.3338625359E+02  -0.3324900202E+02   0.26055E-01   0.15339E+00       3501.13
    4560  -0.3338638114E+02  -0.3325219768E+02   0.24491E-01   0.13565E+00       3499.95
    4570  -0.3338629277E+02  -0.3325599335E+02   0.27327E-01   0.15419E+00       3498.88
    4580  -0.3338615702E+02  -0.3325607592E+02   0.28776E-01   0.18930E+00       3499.24
    4590  -0.3338616256E+02  -0.3324938580E+02   0.25081E-01   0.18828E+00       3500.48
    4600  -0.3338630390E+02  -0.3324217966E+02   0.23481E-01   0.15479E+00       3500.66
    4610  -0.3338638090E+02  -0.3323838023E+02   0.26539E-01   0.14041E+00       3499.64
    4620  -0.3338628323E+02  -0.3323585929E+02   0.28784E-01   0.16060E+00       3498.85
    4630  -0.3338617253E+02  -0.3323646045E+02   0.28216E-01   0.19468E+00       3499.49
    4640  -0.3338619242E+02  -0.3324019491E+02   0.25015E-01   0.18983E+00       3500.87
    4650  -0.3338635196E+02  -0.3324654209E+02   0.21854E-01   0.15619E+00       3501.09
    4660  -0.3338644787E+02  -0.3325385531E+02   0.20935E-01   0.14397E+00       3500.20
    4670  -0.3338634354E+02  -0.3326405685E+02   0.26912E-01   0.16293E+00       3499.57
    4680  -0.3338622133E+02  -0.3327289608E+02   0.33141E-01   0.18687E+00       3500.09
    4690  -0.3338623932E+02  -0.3327931217E+02   0.31677E-01   0.17543E+00       3500.88
    4700  -0.3338639866E+02  -0.3328334752E+02   0.25834E-01   0.14762E+00       3500.57
    4710  -0.3338648152E+02  -0.3328282118E+02   0.23052E-01   0.13998E+00       3499.45
    4720  -0.3338638851E+02  -0.3327681997E+02   0.25610E-01   0.15973E+00       3498.68
    4730  -0.3338628487E+02  -0.3326194614E+02   0.29473E-01   0.18450E+00       3499.06
    4740  -0.3338630478E+02  -0.3323824771E+02   0.26078E-01   0.17953E+00       3499.87
    4750  -0.3338639759E+02  -0.3322045366E+02   0.21881E-01   0.16133E+00       3499.98
    4760  -0.3338638413E+02  -0.3322050922E+02   0.25479E-01   0.16326E+00       3499.72
    4770  -0.3338629304E+02  -0.3323204565E+02   0.30439E-01   0.17959E+00       3499.99
    4780  -0.3338627272E+02  -0.3324574089E+02   0.28548E-01   0.17902E+00       3500.66
    4790  -0.3338635943E+02  -0.3325699851E+02   0.23324E-01   0.15982E+00       3500.77
    4800  -0.3338641975E+02  -0.3326675650E+02   0.22402E-01   0.15002E+00       3500.18
    4810  -0.3338636225E+02  -0.3327425690E+02   0.25511E-01   0.16032E+00       3499.66
    4820  -0.3338627672E+02  -0.3327616933E+02   0.26759E-01   0.17748E+00       3499.83
    4830  -0.3338625624E+02  -0.3327605438E+02   0.26579E-01   0.17776E+00       3500.41
[...]
    -0.3748332E+00 ( -10.200eV)
    -0.3809905E+00 ( -10.367eV)
    -0.3917228E+00 ( -10.659eV)
    -0.4969257E+00 ( -13.522eV)
    -0.5158673E+00 ( -14.038eV)
    -0.5606417E+00 ( -15.256eV)
    -0.6087644E+00 ( -16.565eV)
    -0.7201354E+00 ( -19.596eV)
    -0.8195715E+00 ( -22.302eV)

 Total PSPW energy   :  -0.3360548180E+02


=== Spin Contamination ===
 
 <Sexact^2> =   0.000000000000000E+000
 <S^2>      =   0.000000000000000E+000
 


== Center of Charge ==

spin up     (    0.0000,    0.0000,    0.0000 )
spin down   (    0.0000,    0.0000,    0.0000 )
     total  (    0.0000,    0.0000,    0.0000 )
ionic       (    0.0000,    0.0000,    0.0000 )
crystal     (    0.0000,    0.0004,   -0.0012 )


== Crystal Dipole ==

mu   =  (    0.0008,    0.0150,   -0.0427 ) au
|mu| =     0.0453 au,       0.1151 Debye


== Molecular Dipole wrt Center of Mass ==

mu   =  (    0.0007,    0.0000,   -0.0011 ) au
|mu| =     0.0013 au,       0.0033 Debye


Translation force removed: (    0.00000    0.00000    0.00000)


          =============  Ion Gradients =================
 Ion Forces:
        1 B    (   -0.00002   -0.00007   -0.00002 )
        2 B    (   -0.00002    0.00003   -0.00008 )
        3 B    (    0.00006   -0.00006    0.00009 )
        4 B    (   -0.00001   -0.00001    0.00003 )
        5 B    (   -0.00006    0.00002   -0.00008 )
        6 B    (    0.00013    0.00003    0.00003 )
        7 B    (   -0.00014    0.00006   -0.00004 )
        8 B    (   -0.00016    0.00004   -0.00012 )
        9 B    (   -0.00002    0.00006    0.00003 )
       10 B    (    0.00011   -0.00010   -0.00005 )
       11 B    (    0.00010    0.00007    0.00000 )
       12 B    (    0.00004   -0.00009    0.00021 )
        C.O.M. (    0.00000    0.00000    0.00000 )
          ===============================================
          |F|       =   0.474448E-03
          |F|/nion  =   0.395374E-04
          max|Fatom|=   0.233249E-03 (   0.012eV/Angstrom)



 output psi filename:./perm2/b12.anneal2.movecs


== Timing ==

cputime in seconds
  prologue    :   0.882436E+00
  main loop   :   0.203300E+01
  epilogue    :   0.172422E+00
  total       :   0.308786E+01
  cputime/step:   0.752962E-01       (      27 evalulations,      11 linesearches)


Time spent doing                        total          step
  FFTs                       :   0.467301E+00  0.173074E-01
  dot products               :   0.196044E+00  0.726090E-02
  geodesic                   :   0.130739E+00  0.484217E-02
  ffm_dgemm                  :   0.209899E-01  0.777405E-03
  fmf_dgemm                  :   0.100541E+00  0.372374E-02
  m_diagonalize              :   0.111674E-02  0.413608E-04
    - m_tredq                :   0.000000E+00  0.000000E+00
    - m_getdiags             :   0.000000E+00  0.000000E+00
    - m_tqliq                :   0.000000E+00  0.000000E+00
    - m_eigsrt               :   0.000000E+00  0.000000E+00
  exchange correlation       :   0.332355E-01  0.123095E-02
  local pseudopotentials     :   0.106381E+00  0.394005E-02
  non-local pseudopotentials :   0.261626E+00  0.968985E-02
  hartree potentials         :   0.000000E+00  0.000000E+00
  ion-ion interaction        :   0.000000E+00  0.000000E+00
  structure factors          :   0.463436E-02  0.171643E-03
  phase factors              :   0.300397E-04  0.111258E-05
  masking and packing        :   0.132122E+00  0.489341E-02
  queue fft                  :   0.851714E+00  0.315450E-01
  queue fft (serial)         :   0.475798E+00  0.176222E-01
  queue fft (message passing):   0.363747E+00  0.134721E-01
  HFX potential              :   0.000000E+00  0.000000E+00
  qmmm LJ                    :   0.000000E+00  0.000000E+00
  qmmm residual Q            :   0.000000E+00  0.000000E+00
 
     >>>  JOB COMPLETED     AT Tue Aug 10 19:31:12 2010  <<<

  Step       Energy      Delta E   Gmax     Grms     Xrms     Xmax   Walltime
  ---- ---------------- -------- -------- -------- -------- -------- --------
@    7     -33.60548180 -9.3D-07  0.00021  0.00008  0.00056  0.00116  11149.0
                                     ok       ok       ok       ok  


      ----------------------
      Optimization converged
      ----------------------


  Step       Energy      Delta E   Gmax     Grms     Xrms     Xmax   Walltime
  ---- ---------------- -------- -------- -------- -------- -------- --------
@    7     -33.60548180 -9.3D-07  0.00021  0.00008  0.00056  0.00116  11149.0
                                     ok       ok       ok       ok  

 
 
                         Geometry "geometry" -> "geometry"
                         ---------------------------------
 
 Output coordinates in angstroms (scale by  1.889725989 to convert to a.u.)
 
  No.       Tag          Charge          X              Y              Z
 ---- ---------------- ---------- -------------- -------------- --------------
    1 B                    5.0000     0.52607138    -0.65784754     0.90569802
    2 B                    5.0000     0.38965693    -0.38967433    -1.96092724
    3 B                    5.0000    -0.39022768     0.38979835     1.96088346
    4 B                    5.0000    -0.87110583    -1.05962608     1.93205196
    5 B                    5.0000     1.14520618     0.09003681    -0.46300606
    6 B                    5.0000     0.19879046     1.15215081     0.72334213
    7 B                    5.0000    -0.19815740    -1.15285076    -0.72319301
    8 B                    5.0000    -0.76539868    -1.78922408     0.59409008
    9 B                    5.0000     0.87106916     1.05960440    -1.93191234
   10 B                    5.0000     0.76565380     1.78927669    -0.59371934
   11 B                    5.0000    -0.52633859     0.65819003    -0.90586555
   12 B                    5.0000    -1.14521974    -0.08983430     0.46255788
 
 
                                    Velocities
                                    ----------
  No.       Tag          Charge          X              Y              Z
 ---- ---------------- ---------- -------------- -------------- --------------
    1 B                    5.0000    -0.00002791     0.00004214    -0.00002666
    2 B                    5.0000    -0.00003119    -0.00002745    -0.00002245
    3 B                    5.0000    -0.00000851     0.00001495    -0.00000094
    4 B                    5.0000    -0.00000761    -0.00000311    -0.00002466
    5 B                    5.0000    -0.00003651    -0.00002101    -0.00003466
    6 B                    5.0000    -0.00001684     0.00001637     0.00001406
    7 B                    5.0000     0.00003649    -0.00003401     0.00000381
    8 B                    5.0000    -0.00000369     0.00001920     0.00000055
    9 B                    5.0000    -0.00001691     0.00001888     0.00000765
   10 B                    5.0000     0.00004158     0.00003097     0.00003947
   11 B                    5.0000     0.00005251    -0.00003177     0.00000163
   12 B                    5.0000     0.00001859    -0.00002517     0.00004221
 
      Atomic Mass 
      ----------- 
 
      B                 11.009310
 

 Effective nuclear repulsion energy (a.u.)     391.3856836671

            Nuclear Dipole moment (a.u.) 
            ----------------------------
        X                 Y               Z
 ---------------- ---------------- ----------------
     0.0000000000     0.0000000000     0.0000000000
 
 ==============================================================================
                                internuclear distances
 ------------------------------------------------------------------------------
       center one      |      center two      | atomic units |  angstroms
 ------------------------------------------------------------------------------
    3 B                |   1 B                |     3.30058  |     1.74659
    4 B                |   1 B                |     3.36293  |     1.77959
    4 B                |   3 B                |     2.88634  |     1.52739
    5 B                |   1 B                |     3.17114  |     1.67810
    5 B                |   2 B                |     3.29742  |     1.74492
    6 B                |   3 B                |     2.96370  |     1.56832
    7 B                |   2 B                |     2.96389  |     1.56842
    8 B                |   1 B                |     3.29756  |     1.74499
    8 B                |   4 B                |     2.88679  |     1.52762
    8 B                |   7 B                |     2.96510  |     1.56907
    9 B                |   2 B                |     2.88640  |     1.52742
    9 B                |   5 B                |     3.36610  |     1.78126
   10 B                |   5 B                |     3.29949  |     1.74601
   10 B                |   6 B                |     2.96507  |     1.56905
   10 B                |   9 B                |     2.88720  |     1.52784
   11 B                |   2 B                |     3.30039  |     1.74649
   11 B                |   5 B                |     3.43960  |     1.82016
   11 B                |   9 B                |     3.36279  |     1.77951
   11 B                |  10 B                |     3.29812  |     1.74529
   12 B                |   1 B                |     3.43921  |     1.81995
   12 B                |   3 B                |     3.29758  |     1.74500
   12 B                |   4 B                |     3.36724  |     1.78187
   12 B                |   8 B                |     3.29999  |     1.74628
   12 B                |  11 B                |     3.17065  |     1.67784
 ------------------------------------------------------------------------------
                         number of included internuclear distances:         24
 ==============================================================================



 ==============================================================================
                                 internuclear angles
 ------------------------------------------------------------------------------
        center 1       |       center 2       |       center 3       |  degrees
 ------------------------------------------------------------------------------
    1 B                |   3 B                |   4 B                |    65.45
    3 B                |   1 B                |   5 B                |   114.77
    3 B                |   1 B                |   8 B                |    96.23
    1 B                |   3 B                |  12 B                |    62.83
    4 B                |   1 B                |   5 B                |   149.39
    1 B                |   8 B                |   4 B                |    65.49
    1 B                |   4 B                |  12 B                |    61.46
    5 B                |   1 B                |   8 B                |   114.61
    5 B                |   1 B                |  12 B                |    90.06
    1 B                |   8 B                |  12 B                |    62.84
    5 B                |   2 B                |   7 B                |    67.58
    5 B                |   2 B                |   9 B                |    65.57
    5 B                |   2 B                |  11 B                |    62.84
    7 B                |   2 B                |   9 B                |   124.39
    7 B                |   2 B                |  11 B                |    67.58
    9 B                |   2 B                |  11 B                |    65.45
    1 B                |   3 B                |   4 B                |    65.45
    1 B                |   3 B                |   6 B                |    67.53
    1 B                |   3 B                |  12 B                |    62.83
    4 B                |   3 B                |   6 B                |   124.38
    4 B                |   3 B                |  12 B                |    65.59
    6 B                |   3 B                |  12 B                |    67.58
    4 B                |   3 B                |   1 B                |    65.45
    4 B                |   8 B                |   1 B                |    65.49
    1 B                |   4 B                |  12 B                |    61.46
    3 B                |   4 B                |   8 B                |   116.61
    4 B                |   3 B                |  12 B                |    65.59
    4 B                |   8 B                |  12 B                |    65.55
    1 B                |   5 B                |   2 B                |   114.70
    1 B                |   5 B                |   9 B                |   149.14
    1 B                |   5 B                |  10 B                |   114.49
    1 B                |   5 B                |  11 B                |    89.93
    5 B                |   2 B                |   9 B                |    65.57
    2 B                |   5 B                |  10 B                |    96.27
    5 B                |   2 B                |  11 B                |    62.84
    5 B                |  10 B                |   9 B                |    65.53
    5 B                |   9 B                |  11 B                |    61.48
    5 B                |  10 B                |  11 B                |    62.84
    3 B                |   6 B                |  10 B                |   174.52
    2 B                |   7 B                |   8 B                |   174.48
    1 B                |   8 B                |   4 B                |    65.49
    1 B                |   8 B                |   7 B                |    67.63
    1 B                |   8 B                |  12 B                |    62.84
    4 B                |   8 B                |   7 B                |   124.51
    4 B                |   8 B                |  12 B                |    65.55
    7 B                |   8 B                |  12 B                |    67.71
    9 B                |   2 B                |   5 B                |    65.57
    2 B                |   9 B                |  10 B                |   116.62
    9 B                |   2 B                |  11 B                |    65.45
    9 B                |  10 B                |   5 B                |    65.53
    5 B                |   9 B                |  11 B                |    61.48
    9 B                |  10 B                |  11 B                |    65.48
    5 B                |  10 B                |   6 B                |    67.70
    5 B                |  10 B                |   9 B                |    65.53
    5 B                |  10 B                |  11 B                |    62.84
    6 B                |  10 B                |   9 B                |   124.49
    6 B                |  10 B                |  11 B                |    67.64
    9 B                |  10 B                |  11 B                |    65.48
   11 B                |   2 B                |   5 B                |    62.84
   11 B                |   2 B                |   9 B                |    65.45
    2 B                |  11 B                |  10 B                |    96.24
    2 B                |  11 B                |  12 B                |   114.75
   11 B                |   9 B                |   5 B                |    61.48
   11 B                |  10 B                |   5 B                |    62.84
    5 B                |  11 B                |  12 B                |    90.07
   11 B                |  10 B                |   9 B                |    65.48
    9 B                |  11 B                |  12 B                |   149.37
   10 B                |  11 B                |  12 B                |   114.59
   12 B                |   3 B                |   1 B                |    62.83
   12 B                |   4 B                |   1 B                |    61.46
   12 B                |   8 B                |   1 B                |    62.84
    1 B                |  12 B                |  11 B                |    89.94
   12 B                |   3 B                |   4 B                |    65.59
    3 B                |  12 B                |   8 B                |    96.24
    3 B                |  12 B                |  11 B                |   114.72
   12 B                |   8 B                |   4 B                |    65.55
    4 B                |  12 B                |  11 B                |   149.15
    8 B                |  12 B                |  11 B                |   114.52
 ------------------------------------------------------------------------------
                            number of included internuclear angles:         78
 ==============================================================================




 Task  times  cpu:       36.6s     wall:       46.1s
 
 
                                NWChem Input Module
                                -------------------
 
 
 Summary of allocated global arrays
-----------------------------------
  No active global arrays



                         GA Statistics for process    0
                         ------------------------------

       create   destroy   get      put      acc     scatter   gather  read&inc
calls:    0        0        0        0        0        0        0        0     
number of processes/call 0.00e+00 0.00e+00 0.00e+00 0.00e+00 0.00e+00
bytes total:             0.00e+00 0.00e+00 0.00e+00 0.00e+00 0.00e+00 0.00e+00
bytes remote:            0.00e+00 0.00e+00 0.00e+00 0.00e+00 0.00e+00 0.00e+00
Max memory consumed for GA by this process: 0 bytes
 



                                  ACKNOWLEDGEMENT
                                  ---------------

            Please use the following acknowledgement where appropriate 
            for results obtained with NWChem:

            High Performance Computational Chemistry Group, "NWChem, A
            Computational Chemistry Package for Parallel Computers, 
            Version 5.1.1" (2008), Pacific Northwest National Laboratory,
            Richland, Washington 99352-0999, USA.


                                     CITATION
                                     --------

          Please use the following citation when publishing results
          obtained with NWChem:

          E. J. Bylaska, W. A. de Jong, N. Govind, K. Kowalski, T. P. Straatsma,
          M. Valiev, H. J. J. Van Dam, D. Wang, E. Apra, T. L. Windus, J. Hammond,
          J. Autschbach, P. Nichols, S. Hirata, M. T. Hackler, Y. Zhao, P.-D. Fan,
          R. J. Harrison, M. Dupuis, D. M. A. Smith, J. Nieplocha, V. Tipparaju,
          M. Krishnan, A. Vazquez-Mayagoitia, L. Jensen, M. Swart, Q. Wu,
          T. Van Voorhis, A. A. Auer, M. Nooijen, L. D. Crosby, E. Brown, 
          G. Cisneros, G. I. Fann, H. Fruchtl, J. Garza, K. Hirao,
          R. Kendall, J. A. Nichols, K. Tsemekhman, K. Wolinski, J. Anchell, 
          D. Bernholdt, P. Borowski, T. Clark, D. Clerc, H. Dachsel, M. Deegan, 
          K. Dyall, D. Elwood, E. Glendening, M. Gutowski, A. Hess, J. Jaffe, 
          B. Johnson, J. Ju, R. Kobayashi, R. Kutteh, Z. Lin, R. Littlefield, 
          X. Long, B. Meng, T. Nakajima, S. Niu, L. Pollack, M. Rosing, 
          G. Sandrone, M. Stave, H. Taylor, G. Thomas, J. van Lenthe, 
          A. Wong, and Z. Zhang,
          "NWChem, A Computational Chemistry Package for Parallel Computers, 
          Version 5.1.1" (2008),
                      Pacific Northwest National Laboratory,
                      Richland, Washington 99352-0999, USA.



 Total times  cpu:    10427.0s     wall:    11149.1s
MA_summarize_allocated_blocks: starting scan ...
MA_summarize_allocated_blocks: scan completed: 0 heap blocks, 0 stack blocks
MA usage statistics:

	allocation statistics:
					      heap	     stack
					      ----	     -----
	current number of blocks	         0	         0
	maximum number of blocks	       257	        23
	current total bytes		         0	         0
	maximum total bytes		  16422728	   8064824
	maximum total K-bytes		     16423	      8065
	maximum total M-bytes		        17	         9
