 argument  1 = example2a.nw
 argument  2 = -np
 argument  3 = 6
 


============================== echo of input deck ==============================
title "B12 LDA/20Ry - constant energy annealing example"
echo

start b12.anneal1

scratch_dir   ./scratch
permanent_dir ./perm

charge 0

#### icosahedral structure ####
geometry
B 1.06848703 -1.06977718 -0.27191204
B -0.41738004 -1.54046760 0.30786278
B 1.54044867 0.41755176 0.31097113
B -1.53464475 -0.41595403 -0.30802728
B 0.41455946 1.53816406 -0.30497372
B -1.06506013 1.06638042 0.26996858
B 0.69163266 -0.69066193 1.27228704
B -0.26229140 -0.90393650 -1.22051191
B 0.89747884 0.25958856 -1.21386685
B -0.69798902 0.69567491 -1.28227908
B 0.26356093 0.90344215 1.22217740
B -0.89880225 -0.26000463 1.21830395
end

nwpw
   simulation_cell
      boundary_conditions aperiodic
      SC 20.0
   end
   cutoff 10.0
   lmbfgs
   Car-Parrinello
      fake_mass 500.0
      time_step 5.0
      loop 10 100
      scaling 1.0 2.0
      emotion_filename b12.00.emotion
      xyz_filename     b12.00.xyz
   end
end
task pspw energy

set cpmd:init_velocities_temperature 300.0
task pspw car-parrinello


unset cpmd:init_velocities_temperature
task pspw car-parrinello
task pspw car-parrinello
task pspw energy
task pspw car-parrinello


nwpw
   Car-Parrinello
      scaling 0.99 0.99
      emotion_filename b12.01.emotion
      xyz_filename     b12.01.xyz
   end
end
task pspw energy
task pspw car-parrinello
task pspw car-parrinello
task pspw car-parrinello
================================================================================


                                         
                                         
 
 
             Northwest Computational Chemistry Package (NWChem) 5.1.1
             --------------------------------------------------------
 
 
                    Environmental Molecular Sciences Laboratory
                       Pacific Northwest National Laboratory
                                Richland, WA 99352
 
                                         
                                         
 
 
                  COPYRIGHT (C) 1994, 1995, 1996, 1997, 1998, 1999,
                2000, 2001, 2002, 2003, 2004, 2005, 2006, 2007, 2008,
                                     2009, 2010
                        Pacific Northwest National Laboratory,
                             Battelle Memorial Institute.
 
                            >>> All Rights Reserved <<<
 
 
                                    DISCLAIMER
                                    ----------

            This material was prepared as an account of work sponsored
            by an agency of the United States Government.  Neither the
            United States Government nor the United States Department
            of Energy, nor Battelle, nor any of their employees, MAKES
            ANY WARRANTY, EXPRESS OR IMPLIED, OR ASSUMES ANY LEGAL
            LIABILITY OR RESPONSIBILITY FOR THE ACCURACY, COMPLETENESS,
            OR USEFULNESS OF ANY INFORMATION, APPARATUS, PRODUCT,
            SOFTWARE, OR PROCESS DISCLOSED, OR REPRESENTS THAT ITS USE
            WOULD NOT INFRINGE PRIVATELY OWNED RIGHTS.


                                    LIMITED USE
                                    -----------

            This software (including any documentation) is being made
            available to you for your internal use only, solely for use
            in performance of work directly for the U.S. Federal
            Government or work under contracts with the U.S. Department
            of Energy or other U.S. Federal Government agencies.  This
            software is a version which has not yet been evaluated and
            cleared for commercialization.  Adherence to this notice
            may be necessary for the author, Battelle Memorial
            Institute, to successfully assert copyright in and
            commercialize this software. This software is not intended
            for duplication or distribution to third parties without
            the permission of the Manager of Software Products at
            Pacific Northwest National Laboratory, Richland,
            Washington, 99352.


                                  ACKNOWLEDGMENT
                                  --------------

            This software and its documentation were produced with
            Government support under Contract Number DE-AC05-76RL01830
            awarded by the United States Department of Energy.  The
            Government retains a paid-up non-exclusive, irrevocable
            worldwide license to reproduce, prepare derivative works,
            perform publicly and display publicly by or for the
            Government, including the right to distribute to other
            Government contractors.


           Job information
           ---------------

    hostname      = seattle-1
    program       = nwchem
    date          = Tue Aug 10 13:17:33 2010

    compiled      = Wed_Jul_21_12:26:22_2010
    source        = /home/bylaska/nwchem-releases/nwchem
    nwchem branch = Development
    input         = example2a.nw
    prefix        = b12.anneal1.
    data base     = ./perm/b12.anneal1.db
    status        = startup
    nproc         =        6
    time left     =     -1s



           Memory information
           ------------------

    heap      =   13107201 doubles =    100.0 Mbytes
    stack     =   13107201 doubles =    100.0 Mbytes
    global    =   26214400 doubles =    200.0 Mbytes (distinct from heap & stack)
    total     =   52428802 doubles =    400.0 Mbytes
    verify    = yes
    hardfail  = no 


           Directory information
           ---------------------
 
  0 permanent = ./perm
  0 scratch   = ./scratch
 
 
 
 
                                NWChem Input Module
                                -------------------
 
 
                 B12 LDA/20Ry - constant energy annealing example
                 ------------------------------------------------

 Scaling coordinates for geometry "geometry" by  1.889725989
 (inverse scale =  0.529177249)

 C1  symmetry detected

          ------
          auto-z
          ------
  autoz: excessive number of variables                    570
                    30

 AUTOZ failed to generate good internal coordinates.
 Cartesian coordinates will be used in optimizations.

 
 
                             Geometry "geometry" -> ""
                             -------------------------
 
 Output coordinates in angstroms (scale by  1.889725989 to convert to a.u.)
 
  No.       Tag          Charge          X              Y              Z
 ---- ---------------- ---------- -------------- -------------- --------------
    1 B                    5.0000     0.93634237     0.06557939    -1.21613577
    2 B                    5.0000     0.95132923    -1.29269506    -0.25678433
    3 B                    5.0000     0.63268543     1.45622156    -0.35094518
    4 B                    5.0000    -0.62913960    -1.45053548     0.35094623
    5 B                    5.0000    -0.94926117     1.28937441     0.25929531
    6 B                    5.0000    -0.93407148    -0.06545737     1.21145744
    7 B                    5.0000     1.56679175     0.19349581     0.28601914
    8 B                    5.0000    -0.37990653    -0.91649189    -1.17951725
    9 B                    5.0000    -0.56767363     0.71479184    -1.23010020
   10 B                    5.0000    -1.57925546    -0.19597576    -0.28798885
   11 B                    5.0000     0.38187035     0.91728639     1.17989423
   12 B                    5.0000     0.57028874    -0.71559385     1.23385923
 
      Atomic Mass 
      ----------- 
 
      B                 11.009310
 

 Effective nuclear repulsion energy (a.u.)     412.2264810027

            Nuclear Dipole moment (a.u.) 
            ----------------------------
        X                 Y               Z
 ---------------- ---------------- ----------------
     0.0000000000     0.0000000000     0.0000000000
 
 
            XYZ format geometry
            -------------------
    12
 geometry
 B                     0.93634237     0.06557939    -1.21613577
 B                     0.95132923    -1.29269506    -0.25678433
 B                     0.63268543     1.45622156    -0.35094518
 B                    -0.62913960    -1.45053548     0.35094623
 B                    -0.94926117     1.28937441     0.25929531
 B                    -0.93407148    -0.06545737     1.21145744
 B                     1.56679175     0.19349581     0.28601914
 B                    -0.37990653    -0.91649189    -1.17951725
 B                    -0.56767363     0.71479184    -1.23010020
 B                    -1.57925546    -0.19597576    -0.28798885
 B                     0.38187035     0.91728639     1.17989423
 B                     0.57028874    -0.71559385     1.23385923
 
 ==============================================================================
                                internuclear distances
 ------------------------------------------------------------------------------
       center one      |      center two      | atomic units |  angstroms
 ------------------------------------------------------------------------------
    2 B                |   1 B                |     3.14257  |     1.66298
    3 B                |   1 B                |     3.14777  |     1.66573
    4 B                |   2 B                |     3.21372  |     1.70063
    5 B                |   3 B                |     3.21963  |     1.70376
    6 B                |   4 B                |     3.13484  |     1.65889
    6 B                |   5 B                |     3.12943  |     1.65602
    7 B                |   1 B                |     3.08801  |     1.63410
    7 B                |   2 B                |     3.20819  |     1.69770
    7 B                |   3 B                |     3.20293  |     1.69492
    8 B                |   1 B                |     3.10417  |     1.64266
    8 B                |   2 B                |     3.14238  |     1.66288
    8 B                |   4 B                |     3.09917  |     1.64001
    9 B                |   1 B                |     3.09577  |     1.63821
    9 B                |   3 B                |     3.14143  |     1.66238
    9 B                |   5 B                |     3.10172  |     1.64136
    9 B                |   8 B                |     3.10451  |     1.64283
   10 B                |   4 B                |     3.20969  |     1.69849
   10 B                |   5 B                |     3.21957  |     1.70372
   10 B                |   6 B                |     3.09456  |     1.63757
   10 B                |   8 B                |     3.13513  |     1.65904
   10 B                |   9 B                |     3.12826  |     1.65541
   11 B                |   3 B                |     3.10331  |     1.64220
   11 B                |   5 B                |     3.13823  |     1.66068
   11 B                |   6 B                |     3.10427  |     1.64271
   11 B                |   7 B                |     3.12058  |     1.65134
   12 B                |   2 B                |     3.10528  |     1.64325
   12 B                |   4 B                |     3.13848  |     1.66081
   12 B                |   6 B                |     3.09724  |     1.63899
   12 B                |   7 B                |     3.11539  |     1.64859
   12 B                |  11 B                |     3.10784  |     1.64460
 ------------------------------------------------------------------------------
                         number of included internuclear distances:         30
 ==============================================================================



 ==============================================================================
                                 internuclear angles
 ------------------------------------------------------------------------------
        center 1       |       center 2       |       center 3       |  degrees
 ------------------------------------------------------------------------------
    2 B                |   1 B                |   3 B                |   112.57
    2 B                |   1 B                |   7 B                |    61.98
    1 B                |   8 B                |   2 B                |    60.41
    2 B                |   1 B                |   9 B                |   109.69
    3 B                |   1 B                |   7 B                |    61.80
    3 B                |   1 B                |   8 B                |   109.97
    1 B                |   9 B                |   3 B                |    60.61
    7 B                |   1 B                |   8 B                |   109.60
    7 B                |   1 B                |   9 B                |   109.33
    8 B                |   1 B                |   9 B                |    60.10
    1 B                |   2 B                |   4 B                |   105.88
    2 B                |   1 B                |   7 B                |    61.98
    2 B                |   8 B                |   1 B                |    60.41
    1 B                |   2 B                |  12 B                |   103.55
    4 B                |   2 B                |   7 B                |   107.69
    2 B                |   8 B                |   4 B                |    61.98
    2 B                |  12 B                |   4 B                |    61.95
    7 B                |   2 B                |   8 B                |   105.64
    2 B                |  12 B                |   7 B                |    62.09
    8 B                |   2 B                |  12 B                |   103.79
    1 B                |   3 B                |   5 B                |   105.88
    3 B                |   1 B                |   7 B                |    61.80
    3 B                |   9 B                |   1 B                |    60.61
    1 B                |   3 B                |  11 B                |   103.77
    5 B                |   3 B                |   7 B                |   107.71
    3 B                |   9 B                |   5 B                |    62.09
    3 B                |  11 B                |   5 B                |    62.10
    7 B                |   3 B                |   9 B                |   105.33
    3 B                |  11 B                |   7 B                |    61.94
    9 B                |   3 B                |  11 B                |   103.67
    2 B                |   4 B                |   6 B                |   106.18
    4 B                |   8 B                |   2 B                |    61.98
    2 B                |   4 B                |  10 B                |   108.47
    4 B                |  12 B                |   2 B                |    61.95
    6 B                |   4 B                |   8 B                |   103.89
    4 B                |   6 B                |  10 B                |    62.02
    4 B                |   6 B                |  12 B                |    60.47
    4 B                |   8 B                |  10 B                |    61.97
    8 B                |   4 B                |  12 B                |   104.02
   10 B                |   4 B                |  12 B                |   106.09
    3 B                |   5 B                |   6 B                |   106.11
    5 B                |   9 B                |   3 B                |    62.09
    3 B                |   5 B                |  10 B                |   108.28
    5 B                |  11 B                |   3 B                |    62.10
    6 B                |   5 B                |   9 B                |   103.49
    5 B                |   6 B                |  10 B                |    62.30
    5 B                |   6 B                |  11 B                |    60.45
    5 B                |   9 B                |  10 B                |    62.23
    9 B                |   5 B                |  11 B                |   103.78
   10 B                |   5 B                |  11 B                |   106.21
    4 B                |   6 B                |   5 B                |   112.74
    4 B                |   6 B                |  10 B                |    62.02
    4 B                |   6 B                |  11 B                |   110.02
    4 B                |   6 B                |  12 B                |    60.47
    5 B                |   6 B                |  10 B                |    62.30
    5 B                |   6 B                |  11 B                |    60.45
    5 B                |   6 B                |  12 B                |   109.93
   10 B                |   6 B                |  11 B                |   110.22
   10 B                |   6 B                |  12 B                |   110.03
   11 B                |   6 B                |  12 B                |    60.15
    7 B                |   1 B                |   2 B                |    61.98
    7 B                |   1 B                |   3 B                |    61.80
    1 B                |   7 B                |  11 B                |   104.78
    1 B                |   7 B                |  12 B                |   104.60
    2 B                |   7 B                |   3 B                |   109.40
    2 B                |   7 B                |  11 B                |   107.26
    7 B                |  12 B                |   2 B                |    62.09
    7 B                |  11 B                |   3 B                |    61.94
    3 B                |   7 B                |  12 B                |   107.08
    7 B                |  12 B                |  11 B                |    60.19
    1 B                |   8 B                |   2 B                |    60.41
    1 B                |   8 B                |   4 B                |   109.71
    8 B                |   1 B                |   9 B                |    60.10
    1 B                |   8 B                |  10 B                |   109.37
    2 B                |   8 B                |   4 B                |    61.98
    2 B                |   8 B                |   9 B                |   109.47
    2 B                |   8 B                |  10 B                |   112.26
    4 B                |   8 B                |   9 B                |   109.55
    4 B                |   8 B                |  10 B                |    61.97
    8 B                |   9 B                |  10 B                |    60.40
    1 B                |   9 B                |   3 B                |    60.61
    1 B                |   9 B                |   5 B                |   110.15
    9 B                |   1 B                |   8 B                |    60.10
    1 B                |   9 B                |  10 B                |   109.76
    3 B                |   9 B                |   5 B                |    62.09
    3 B                |   9 B                |   8 B                |   110.12
    3 B                |   9 B                |  10 B                |   112.68
    5 B                |   9 B                |   8 B                |   110.26
    5 B                |   9 B                |  10 B                |    62.23
    8 B                |   9 B                |  10 B                |    60.40
    4 B                |  10 B                |   5 B                |   108.44
   10 B                |   6 B                |   4 B                |    62.02
   10 B                |   8 B                |   4 B                |    61.97
    4 B                |  10 B                |   9 B                |   106.18
   10 B                |   6 B                |   5 B                |    62.30
    5 B                |  10 B                |   8 B                |   106.50
   10 B                |   9 B                |   5 B                |    62.23
    6 B                |  10 B                |   8 B                |   104.00
    6 B                |  10 B                |   9 B                |   103.68
   10 B                |   9 B                |   8 B                |    60.40
    3 B                |  11 B                |   5 B                |    62.10
    3 B                |  11 B                |   6 B                |   109.67
    3 B                |  11 B                |   7 B                |    61.94
    3 B                |  11 B                |  12 B                |   109.81
   11 B                |   6 B                |   5 B                |    60.45
    5 B                |  11 B                |   7 B                |   111.92
    5 B                |  11 B                |  12 B                |   109.42
    6 B                |  11 B                |   7 B                |   108.84
   11 B                |   6 B                |  12 B                |    60.15
   11 B                |  12 B                |   7 B                |    60.19
    2 B                |  12 B                |   4 B                |    61.95
    2 B                |  12 B                |   6 B                |   109.86
    2 B                |  12 B                |   7 B                |    62.09
    2 B                |  12 B                |  11 B                |   110.21
   12 B                |   6 B                |   4 B                |    60.47
    4 B                |  12 B                |   7 B                |   112.02
    4 B                |  12 B                |  11 B                |   109.83
    6 B                |  12 B                |   7 B                |   109.16
   12 B                |   6 B                |  11 B                |    60.15
    7 B                |  12 B                |  11 B                |    60.19
 ------------------------------------------------------------------------------
                            number of included internuclear angles:        120
 ==============================================================================



          ****************************************************
          *                                                  *
          *               NWPW PSPW Calculation              *
          *                                                  *
          *  [ (Grassman/Stiefel manifold implementation) ]  *
          *                                                  *
          *      [ NorthWest Chemistry implementation ]      *
          *                                                  *
          *            version #5.10   06/12/02              *
          *                                                  *
          *    This code was developed by Eric J. Bylaska,   *
          *    and was based upon algorithms and code        *
          *    developed by the group of Prof. John H. Weare *
          *                                                  *
          ****************************************************
     >>>  JOB STARTED       AT Tue Aug 10 13:17:33 2010  <<<
          ================ input data ========================
  library name resolved from: compiled reference
  NWCHEM_NWPW_LIBRARY set to: <
 /home/bylaska/nwchem-releases/nwchem/src/nwpw/libraryps/>
 Generating 1d pseudopotential for B   
 
 Generated formatted_filename: ./perm/B.vpp
 random planewave guess, initial psi:
 b12.anneal1.movecs                                
 -   spin, nalpha, nbeta:                     1                    18
                     0

 input psi filename:./perm/b12.anneal1.movecs
 Warning - Gram-Schmidt being performed on psi:   18.0000000000000     
   11.1572601654313        18.0000000000000        6.84273983456871     

 number of processors used:         6
 processor grid           :   6 x   1
 parallel mapping         :   hilbert
 parallel mapping         :  balanced

 options:
      boundary conditions  = aperiodic   (version4)
      electron spin        = restricted
      exchange-correlation = LDA (Vosko et al) parameterization

 elements involved in the cluster:
      1: B     core charge:  3.0000  lmax=  2
             comment    : Hamann pseudopotential
             pseudpotential type            :   0
             highest angular component      :   2
             local potential used           :   2
             number of non-local projections:   4
             aperiodic cutoff radius        :  1.000
             cutoff =   1.100   0.900   1.100
 

 total charge:   0.000

 atomic composition:
     B   : 12

 number of electrons: spin up=    18 (  18 per task)  down=    18 (  18 per task) (fourier space)
 number of orbitals : spin up=    18 (  18 per task)  down=    18 (  18 per task) (fourier space)

 supercell:
      cell_name:  cell_default                                      
      lattice:    a1=<  20.000   0.000   0.000 >
                  a2=<   0.000  20.000   0.000 >
                  a3=<   0.000   0.000  20.000 >
      reciprocal: b1=<   0.314   0.000   0.000 >
                  b2=<   0.000   0.314   0.000 >
                  b3=<   0.000   0.000   0.314 >
      lattice:    a=      20.000 b=     20.000 c=      20.000
                  alpha=  90.000 beta=  90.000 gamma=  90.000
                  omega=      8000.0

      density cutoff= 20.000  fft= 42x 42x 42(    17133 waves     2855 per task)
      wavefnc cutoff= 10.000  fft= 42x 42x 42(     6027 waves     1004 per task)

 technical parameters:
      time step=      5.80     ficticious mass=  400000.0
      tolerance=.100E-06 (energy)   0.100E-06 (density)
      maximum iterations =    1000 (   10 inner  100 outer )





== Energy Calculation ==


          ============ Grassmann lmbfgs iteration ============
     >>>  ITERATION STARTED AT Tue Aug 10 13:17:36 2010  <<<
    iter.           Energy         DeltaE       DeltaRho 
    ------------------------------------------------------
     -  15 steepest descent iterations performed
      10   -0.3215007695E+02   -0.40801E+00    0.23059E+01
     -  10 steepest descent iterations performed
      20   -0.3334993740E+02   -0.37586E-01    0.26018E-01
     -  10 steepest descent iterations performed
      30   -0.3351000403E+02   -0.46227E-02    0.57103E-02
      40   -0.3353226131E+02   -0.14466E-02    0.95592E-03
      50   -0.3353921816E+02   -0.48997E-03    0.43605E-03
      60   -0.3354442679E+02   -0.42487E-03    0.80523E-03
      70   -0.3354781174E+02   -0.25912E-03    0.43509E-03
      80   -0.3355038321E+02   -0.16074E-03    0.55626E-03
      90   -0.3355108418E+02   -0.36283E-04    0.56190E-04
     100   -0.3355132411E+02   -0.13782E-04    0.31035E-04
     110   -0.3355143278E+02   -0.11090E-04    0.11212E-04
     120   -0.3355151241E+02   -0.34512E-05    0.17792E-04
     130   -0.3355152630E+02   -0.10113E-05    0.10505E-05
     140   -0.3355153402E+02   -0.52397E-06    0.10096E-05
     150   -0.3355153757E+02   -0.30786E-06    0.67058E-06
     160   -0.3355153955E+02   -0.78975E-07    0.28623E-06
     170   -0.3355153962E+02   -0.67811E-07    0.69489E-09
  *** tolerance ok. iteration terminated
     >>>  ITERATION ENDED   AT Tue Aug 10 13:18:05 2010  <<<


==  Summary Of Results  ==
 
 number of electrons: spin up=   18.00000  down=   18.00000 (real space)

 total     energy    :  -0.3355153962E+02 (   -0.27960E+01/ion)
 total orbital energy:  -0.1557197481E+02 (   -0.86511E+00/electron)
 hartree   energy    :   0.1703017803E+03 (    0.94612E+01/electron)
 exc-corr  energy    :  -0.1279111778E+02 (   -0.71062E+00/electron)
 ion-ion   energy    :   0.1484015332E+03 (    0.12367E+02/ion)

 kinetic (planewave) :   0.2384360112E+02 (    0.13246E+01/electron)
 V_local (planewave) :  -0.3632504281E+03 (   -0.20181E+02/electron)
 V_nl    (planewave) :  -0.5690825993E-01 (   -0.31616E-02/electron)
 V_Coul  (planewave) :   0.3406035606E+03 (    0.18922E+02/electron)
 V_xc.   (planewave) :  -0.1671180009E+02 (   -0.92843E+00/electron)
 Virial Coefficient  :  -0.1653088212E+01

 orbital energies:
    -0.1505188E+00 (  -4.096eV)
    -0.2463638E+00 (  -6.704eV)
    -0.2469362E+00 (  -6.720eV)
    -0.2503025E+00 (  -6.811eV)
    -0.3375542E+00 (  -9.185eV)
    -0.3423686E+00 (  -9.316eV)
    -0.3431299E+00 (  -9.337eV)
    -0.3439628E+00 (  -9.360eV)
    -0.3763256E+00 ( -10.240eV)
    -0.4658973E+00 ( -12.678eV)
    -0.4669827E+00 ( -12.707eV)
    -0.4776210E+00 ( -12.997eV)
    -0.4781013E+00 ( -13.010eV)
    -0.4804031E+00 ( -13.073eV)
    -0.6477701E+00 ( -17.627eV)
    -0.6521412E+00 ( -17.746eV)
    -0.6528729E+00 ( -17.766eV)
    -0.8267354E+00 ( -22.497eV)

 Total PSPW energy   :  -0.3355153962E+02


=== Spin Contamination ===
 
 <Sexact^2> =   0.000000000000000E+000
 <S^2>      =   0.000000000000000E+000
 


== Center of Charge ==

spin up     (   -0.0002,    0.0001,   -0.0002 )
spin down   (   -0.0002,    0.0001,   -0.0002 )
     total  (   -0.0002,    0.0001,   -0.0002 )
ionic       (    0.0000,    0.0000,    0.0000 )
crystal     (   -0.0009,   -0.0008,   -0.0003 )


== Crystal Dipole ==

mu   =  (   -0.0256,   -0.0328,   -0.0017 ) au
|mu| =     0.0416 au,       0.1058 Debye


== Molecular Dipole wrt Center of Mass ==

mu   =  (    0.0060,   -0.0033,    0.0083 ) au
|mu| =     0.0108 au,       0.0274 Debye

 output psi filename:./perm/b12.anneal1.movecs


== Timing ==

cputime in seconds
  prologue    :   0.271071E+01
  main loop   :   0.297922E+02
  epilogue    :   0.166015E+00
  total       :   0.326690E+02
  cputime/step:   0.756148E-01       (     394 evalulations,     161 linesearches)


Time spent doing                        total          step
  FFTs                       :   0.656202E+01  0.166549E-01
  dot products               :   0.519071E+01  0.131744E-01
  geodesic                   :   0.498489E+01  0.126520E-01
  ffm_dgemm                  :   0.358104E+00  0.908893E-03
  fmf_dgemm                  :   0.148837E+01  0.377760E-02
  m_diagonalize              :   0.140978E-01  0.357812E-04
    - m_tredq                :   0.000000E+00  0.000000E+00
    - m_getdiags             :   0.000000E+00  0.000000E+00
    - m_tqliq                :   0.000000E+00  0.000000E+00
    - m_eigsrt               :   0.000000E+00  0.000000E+00
  exchange correlation       :   0.493096E+00  0.125151E-02
  local pseudopotentials     :   0.428131E-01  0.108663E-03
  non-local pseudopotentials :   0.316916E+01  0.804356E-02
  hartree potentials         :   0.000000E+00  0.000000E+00
  ion-ion interaction        :   0.000000E+00  0.000000E+00
  structure factors          :   0.481699E-01  0.122259E-03
  phase factors              :   0.312318E-04  0.792686E-07
  masking and packing        :   0.187882E+01  0.476858E-02
  queue fft                  :   0.124955E+02  0.317144E-01
  queue fft (serial)         :   0.696356E+01  0.176740E-01
  queue fft (message passing):   0.535469E+01  0.135906E-01
  HFX potential              :   0.000000E+00  0.000000E+00
  qmmm LJ                    :   0.000000E+00  0.000000E+00
  qmmm residual Q            :   0.000000E+00  0.000000E+00
 
     >>>  JOB COMPLETED     AT Tue Aug 10 13:18:05 2010  <<<

 Task  times  cpu:       26.8s     wall:       32.7s
 
 
                                NWChem Input Module
                                -------------------
 
 
 >>>> PSPW Parallel Module - Car-Parrinello <<<<
          ****************************************************
          *                                                  *
          *     Car-Parrinello microcluster calculation      *
          *                                                  *
          *      [   extended Lagrangian molecular   ]       *
          *      [        dynamics simulation        ]       *
          *                                                  *
          *      [ NorthWest Chemistry implementation ]      *
          *                                                  *
          *            version #5.00   06/01/99              *
          *                                                  *
          *    This code was developed by Eric J. Bylaska,   *
          *    and was based upon algorithms and code        *
          *    developed by the group of Prof. John H. Weare *
          *                                                  *
          ****************************************************
     >>>  JOB STARTED       AT Tue Aug 10 13:18:06 2010  <<<
          ================ input data ========================

 input psi filename:./perm/b12.anneal1.movecs
 Generated initial wavefunctions velocities:
 b12.anneal1.vmovecs                               

 input vpsi filename:./perm/b12.anneal1.vmovecs

 number of processors used:         6
 processor grid           :   6 x   1
 parallel mapping         : hilbert
 parallel mapping         : balanced

 options:
      boundary conditions  = aperiodic   (version4)
      electron spin        = restricted
      exchange-correlation = LDA (Vosko et al) parameterization

 elements involved in the cluster:
      1: B     core charge: 3.0  lmax=2
             highest angular component      :  2
             local potential used           :  2
             number of non-local projections:  4
             aperiodic cutoff radius        :  1.000
             cutoff =   1.100   0.900   1.100

 total charge=   0.000

 atomic composition:
     B   : 12

 initial position of ions:
        1 B    (    1.76943    0.12393   -2.29816 ) - atomic mass=  11.009 
        2 B    (    1.79775   -2.44284   -0.48525 ) - atomic mass=  11.009 
        3 B    (    1.19560    2.75186   -0.66319 ) - atomic mass=  11.009 
        4 B    (   -1.18890   -2.74111    0.66319 ) - atomic mass=  11.009 
        5 B    (   -1.79384    2.43656    0.49000 ) - atomic mass=  11.009 
        6 B    (   -1.76514   -0.12370    2.28932 ) - atomic mass=  11.009 
        7 B    (    2.96081    0.36565    0.54050 ) - atomic mass=  11.009 
        8 B    (   -0.71792   -1.73192   -2.22896 ) - atomic mass=  11.009 
        9 B    (   -1.07275    1.35076   -2.32455 ) - atomic mass=  11.009 
       10 B    (   -2.98436   -0.37034   -0.54422 ) - atomic mass=  11.009 
       11 B    (    0.72163    1.73342    2.22968 ) - atomic mass=  11.009 
       12 B    (    1.07769   -1.35228    2.33166 ) - atomic mass=  11.009 
        G.C.   (    0.00000    0.00000    0.00000 )
        C.O.M. (    0.00000    0.00000    0.00000 )

 initial velocity of ions:
        1 B    (    0.00019    0.00000    0.00005 )
        2 B    (   -0.00076    0.00018    0.00052 )
        3 B    (   -0.00019   -0.00053    0.00002 )
        4 B    (   -0.00032   -0.00026    0.00020 )
        5 B    (    0.00037   -0.00057   -0.00034 )
        6 B    (    0.00001    0.00049    0.00050 )
        7 B    (   -0.00060    0.00048   -0.00040 )
        8 B    (    0.00062   -0.00026   -0.00068 )
        9 B    (    0.00011    0.00064    0.00009 )
       10 B    (    0.00007    0.00032   -0.00040 )
       11 B    (   -0.00018   -0.00025    0.00046 )
       12 B    (    0.00068   -0.00023   -0.00002 )
        G.C.   (    0.00000    0.00000    0.00000 )
        C.O.M. (    0.00000    0.00000    0.00000 )

 number of electrons: spin up=    18 (  18 per task)  down=    18 (  18 per task) (fourier space)
 number of orbitals : spin up=    18 (  18 per task)  down=    18 (  18 per task) (fourier space)

 supercell:
      lattice:    a1=<  20.000   0.000   0.000 >
                  a2=<   0.000  20.000   0.000 >
                  a3=<   0.000   0.000  20.000 >
      reciprocal: b1=<   0.314   0.000   0.000 >
                  b2=<   0.000   0.314   0.000 >
                  b3=<   0.000   0.000   0.314 >
      volume :       8000.0
      density cutoff= 20.000  fft= 42x 42x 42(    17133 waves     2855 per task)
      wavefnc cutoff= 10.000  fft= 42x 42x 42(     6027 waves     1004 per task)

 technical parameters:
      translation contrained
      time step=      5.00     ficticious mass=     500.0
      cooling/heatting rates:  0.10000E+01 (psi)   0.20000E+01 (ion)
      maximum iterations =    1000 (   10 inner  100 outer )
      initial kinetic energy:  0.00000E+00 (psi)   0.14251E-01 (ion)
                                                   0.53229E-35 (c.o.m.)
      after scaling:           0.00000E+00 (psi)   0.57002E-01 (ion)
      increased energy:        0.00000E+00 (psi)   0.42752E-01 (ion)

 Constant Energy Simulation                     



          ============ Car-Parrinello iteration ==============
     >>>  ITERATION STARTED AT Tue Aug 10 13:18:07 2010  <<<
    iter.         KE+Energy             Energy        KE_psi        KE_ion   Temperature
    ------------------------------------------------------------------------------------
      10  -0.3349450831E+02  -0.3354839344E+02   0.51574E-02   0.48728E-01       1109.61
      20  -0.3349450550E+02  -0.3354360039E+02   0.40837E-02   0.45011E-01       1055.67
      30  -0.3349450468E+02  -0.3353669913E+02   0.43215E-02   0.37873E-01        992.73
      40  -0.3349450417E+02  -0.3352896925E+02   0.41901E-02   0.30275E-01        924.73
      50  -0.3349450339E+02  -0.3352130807E+02   0.42863E-02   0.22518E-01        850.24
      60  -0.3349450276E+02  -0.3351490139E+02   0.41813E-02   0.16217E-01        776.13
      70  -0.3349450269E+02  -0.3351089955E+02   0.44295E-02   0.11967E-01        707.43
      80  -0.3349450293E+02  -0.3350969442E+02   0.52686E-02   0.99229E-02        647.78
      90  -0.3349450355E+02  -0.3351080053E+02   0.61736E-02   0.10123E-01        599.42
     100  -0.3349450410E+02  -0.3351305500E+02   0.64866E-02   0.12064E-01        563.15
     110  -0.3349450403E+02  -0.3351594989E+02   0.64722E-02   0.14974E-01        538.24
     120  -0.3349450430E+02  -0.3351945457E+02   0.66613E-02   0.18289E-01        522.95
     130  -0.3349450399E+02  -0.3352363062E+02   0.76565E-02   0.21470E-01        515.31
     140  -0.3349450587E+02  -0.3352823432E+02   0.99081E-02   0.23820E-01        512.86
     150  -0.3349450757E+02  -0.3353078494E+02   0.11244E-01   0.25033E-01        513.21
     160  -0.3349450706E+02  -0.3352960782E+02   0.10249E-01   0.24852E-01        514.05
     170  -0.3349450501E+02  -0.3352554282E+02   0.74515E-02   0.23586E-01        513.84
     180  -0.3349450344E+02  -0.3352145171E+02   0.53221E-02   0.21626E-01        511.66
     190  -0.3349450486E+02  -0.3351944876E+02   0.55228E-02   0.19421E-01        507.37
     200  -0.3349450600E+02  -0.3351812644E+02   0.62377E-02   0.17383E-01        501.27
     210  -0.3349450480E+02  -0.3351589009E+02   0.54533E-02   0.15932E-01        493.99
     220  -0.3349450240E+02  -0.3351460945E+02   0.45597E-02   0.15547E-01        486.52
     230  -0.3349450391E+02  -0.3351690147E+02   0.60813E-02   0.16316E-01        479.93
     240  -0.3349450629E+02  -0.3352103918E+02   0.86605E-02   0.17872E-01        474.97
     250  -0.3349450718E+02  -0.3352360132E+02   0.94051E-02   0.19689E-01        471.89
     260  -0.3349450592E+02  -0.3352369645E+02   0.78641E-02   0.21326E-01        470.43
     270  -0.3349450454E+02  -0.3352310275E+02   0.59911E-02   0.22607E-01        470.21
     280  -0.3349450506E+02  -0.3352378137E+02   0.56051E-02   0.23671E-01        470.86
     290  -0.3349450557E+02  -0.3352531469E+02   0.62165E-02   0.24593E-01        472.17
     300  -0.3349450481E+02  -0.3352652772E+02   0.65302E-02   0.25493E-01        474.04
     310  -0.3349450455E+02  -0.3352801314E+02   0.71393E-02   0.26369E-01        476.37
     320  -0.3349450541E+02  -0.3352983174E+02   0.80486E-02   0.27278E-01        479.15
     330  -0.3349450637E+02  -0.3353083294E+02   0.81013E-02   0.28225E-01        482.36
     340  -0.3349450497E+02  -0.3353033305E+02   0.69135E-02   0.28915E-01        485.89
     350  -0.3349450457E+02  -0.3352990278E+02   0.59909E-02   0.29407E-01        489.57
     360  -0.3349450676E+02  -0.3353012855E+02   0.62722E-02   0.29350E-01        493.17
     370  -0.3349450718E+02  -0.3352922121E+02   0.63817E-02   0.28332E-01        496.27
     380  -0.3349450564E+02  -0.3352640704E+02   0.59760E-02   0.25925E-01        498.23
     390  -0.3349450477E+02  -0.3352354771E+02   0.63354E-02   0.22708E-01        498.51
     400  -0.3349450581E+02  -0.3352178718E+02   0.75483E-02   0.19733E-01        497.10
     410  -0.3349450584E+02  -0.3352060415E+02   0.84008E-02   0.17697E-01        494.50
     420  -0.3349450496E+02  -0.3351998686E+02   0.87148E-02   0.16767E-01        491.30
     430  -0.3349450507E+02  -0.3352083955E+02   0.94106E-02   0.16924E-01        488.09
     440  -0.3349450609E+02  -0.3352321012E+02   0.10843E-01   0.17862E-01        485.33
     450  -0.3349450656E+02  -0.3352541101E+02   0.11837E-01   0.19067E-01        483.21
     460  -0.3349450674E+02  -0.3352616493E+02   0.11418E-01   0.20240E-01        481.74
     470  -0.3349450560E+02  -0.3352588413E+02   0.10439E-01   0.20939E-01        480.75
     480  -0.3349450682E+02  -0.3352572079E+02   0.10221E-01   0.20993E-01        479.96
     490  -0.3349450704E+02  -0.3352537691E+02   0.10504E-01   0.20366E-01        479.06
     500  -0.3349450654E+02  -0.3352345809E+02   0.96211E-02   0.19330E-01        477.83
     510  -0.3349450576E+02  -0.3352070592E+02   0.82393E-02   0.17961E-01        476.14
     520  -0.3349450533E+02  -0.3351851417E+02   0.73094E-02   0.16699E-01        473.96
     530  -0.3349450476E+02  -0.3351748045E+02   0.71551E-02   0.15821E-01        471.45
     540  -0.3349450525E+02  -0.3351814030E+02   0.82192E-02   0.15416E-01        468.79
     550  -0.3349450704E+02  -0.3351970829E+02   0.96994E-02   0.15502E-01        466.17
     560  -0.3349450604E+02  -0.3352058400E+02   0.98077E-02   0.16270E-01        463.82
     570  -0.3349450558E+02  -0.3352129525E+02   0.88456E-02   0.17944E-01        462.00
     580  -0.3349450595E+02  -0.3352246441E+02   0.76001E-02   0.20358E-01        461.02
     590  -0.3349450567E+02  -0.3352378961E+02   0.64838E-02   0.22800E-01        460.96
     600  -0.3349450541E+02  -0.3352563550E+02   0.64363E-02   0.24694E-01        461.66
     610  -0.3349450615E+02  -0.3352759591E+02   0.72239E-02   0.25866E-01        462.85
     620  -0.3349450687E+02  -0.3352845555E+02   0.78615E-02   0.26087E-01        464.24
     630  -0.3349450538E+02  -0.3352821490E+02   0.80029E-02   0.25707E-01        465.53
     640  -0.3349450530E+02  -0.3352936966E+02   0.10234E-01   0.24630E-01        466.53
     650  -0.3349450884E+02  -0.3353165383E+02   0.13845E-01   0.23300E-01        467.10
     660  -0.3349450988E+02  -0.3353029229E+02   0.14357E-01   0.21426E-01        467.14
     670  -0.3349450650E+02  -0.3352457065E+02   0.10608E-01   0.19456E-01        466.56
     680  -0.3349450381E+02  -0.3351947770E+02   0.72760E-02   0.17698E-01        465.41
     690  -0.3349450369E+02  -0.3351865727E+02   0.73528E-02   0.16801E-01        463.89
     700  -0.3349450746E+02  -0.3352200955E+02   0.10809E-01   0.16693E-01        462.28
     710  -0.3349450873E+02  -0.3352463018E+02   0.12942E-01   0.17180E-01        460.79
     720  -0.3349450839E+02  -0.3352433204E+02   0.11829E-01   0.17994E-01        459.55
     730  -0.3349450636E+02  -0.3352161659E+02   0.84168E-02   0.18693E-01        458.56
     740  -0.3349450388E+02  -0.3351945215E+02   0.57801E-02   0.19168E-01        457.76
     750  -0.3349450484E+02  -0.3352112470E+02   0.71858E-02   0.19434E-01        457.08
     760  -0.3349450873E+02  -0.3352534022E+02   0.11297E-01   0.19535E-01        456.47
     770  -0.3349450952E+02  -0.3352703909E+02   0.13348E-01   0.19181E-01        455.85
     780  -0.3349450757E+02  -0.3352503409E+02   0.12537E-01   0.17989E-01        455.03
     790  -0.3349450649E+02  -0.3352155941E+02   0.11003E-01   0.16049E-01        453.79
     800  -0.3349450589E+02  -0.3351823185E+02   0.96822E-02   0.14044E-01        452.04
     810  -0.3349450571E+02  -0.3351656758E+02   0.93416E-02   0.12720E-01        449.90
     820  -0.3349450522E+02  -0.3351747230E+02   0.10529E-01   0.12438E-01        447.62
     830  -0.3349450704E+02  -0.3352074864E+02   0.13045E-01   0.13196E-01        445.47
     840  -0.3349450922E+02  -0.3352377445E+02   0.14535E-01   0.14731E-01        443.68
     850  -0.3349450781E+02  -0.3352400976E+02   0.12726E-01   0.16776E-01        442.38
     860  -0.3349450545E+02  -0.3352307335E+02   0.93739E-02   0.19194E-01        441.66
     870  -0.3349450516E+02  -0.3352377366E+02   0.73915E-02   0.21877E-01        441.58
     880  -0.3349450623E+02  -0.3352678360E+02   0.78083E-02   0.24469E-01        442.14
     890  -0.3349450762E+02  -0.3353054801E+02   0.95310E-02   0.26509E-01        443.25
     900  -0.3349450832E+02  -0.3353289438E+02   0.10956E-01   0.27430E-01        444.66
     910  -0.3349450919E+02  -0.3353305591E+02   0.11677E-01   0.26870E-01        446.08
     920  -0.3349450928E+02  -0.3353001710E+02   0.10846E-01   0.24662E-01        447.13
     930  -0.3349450677E+02  -0.3352357445E+02   0.78070E-02   0.21261E-01        447.50
     940  -0.3349450323E+02  -0.3351732043E+02   0.53055E-02   0.17512E-01        447.03
     950  -0.3349450450E+02  -0.3351547304E+02   0.65763E-02   0.14392E-01        445.81
     960  -0.3349450541E+02  -0.3351725434E+02   0.10129E-01   0.12620E-01        444.08
     970  -0.3349450688E+02  -0.3352138770E+02   0.14525E-01   0.12356E-01        442.19
     980  -0.3349451020E+02  -0.3352559332E+02   0.17659E-01   0.13424E-01        440.44
     990  -0.3349450998E+02  -0.3352609984E+02   0.16069E-01   0.15521E-01        439.08
    1000  -0.3349450576E+02  -0.3352359063E+02   0.10910E-01   0.18175E-01        438.25
 *** arived at the Maximum iteration.   terminated.
     >>>  ITERATION ENDED   AT Tue Aug 10 13:21:11 2010  <<<


 Elapsed time of simulation was 120.944 fs



          =============  summary of results  =================

 final position of ions:
        1 B    (    2.10013    0.11287   -2.03034 ) - atomic mass=  11.009 
        2 B    (    1.68712   -2.49532   -0.21074 ) - atomic mass=  11.009 
        3 B    (    1.42038    2.76823   -0.57857 ) - atomic mass=  11.009 
        4 B    (   -1.59855   -2.62730    0.29507 ) - atomic mass=  11.009 
        5 B    (   -1.51488    2.46784    0.29643 ) - atomic mass=  11.009 
        6 B    (   -2.03926   -0.11269    2.17304 ) - atomic mass=  11.009 
        7 B    (    2.80817    0.19037    0.85920 ) - atomic mass=  11.009 
        8 B    (   -0.39937   -1.67699   -2.36394 ) - atomic mass=  11.009 
        9 B    (   -0.62049    1.41769   -2.44065 ) - atomic mass=  11.009 
       10 B    (   -2.86866   -0.00486   -0.86444 ) - atomic mass=  11.009 
       11 B    (    0.45052    1.55829    2.43557 ) - atomic mass=  11.009 
       12 B    (    0.57488   -1.59815    2.42938 ) - atomic mass=  11.009 
        G.C.   (    0.00000    0.00000    0.00000 )
        C.O.M. (    0.00000    0.00000    0.00000 )

 final velocity of ions:
        1 B    (   -0.00027    0.00002   -0.00006 )
        2 B    (    0.00057   -0.00001   -0.00020 )
        3 B    (    0.00041   -0.00013    0.00014 )
        4 B    (    0.00002    0.00003    0.00000 )
        5 B    (   -0.00027    0.00032   -0.00008 )
        6 B    (   -0.00023    0.00038   -0.00016 )
        7 B    (   -0.00032   -0.00006    0.00039 )
        8 B    (    0.00006   -0.00023    0.00003 )
        9 B    (   -0.00019    0.00018    0.00002 )
       10 B    (    0.00021   -0.00004   -0.00018 )
       11 B    (    0.00027   -0.00013   -0.00004 )
       12 B    (   -0.00026   -0.00034    0.00014 )
        G.C.   (    0.00000    0.00000    0.00000 )
        C.O.M. (    0.00000    0.00000    0.00000 )
 
 number of electrons: spin up=   18.00000  down=   18.00000 (real space)

 total     energy    :  -0.3352359063E+02 (   -0.27936E+01/ion)
 total orbital energy:  -0.1560048505E+02 (   -0.86669E+00/electron)
 hartree   energy    :   0.1704976005E+03 (    0.94721E+01/electron)
 exc-corr  energy    :  -0.1280840249E+02 (   -0.71158E+00/electron)
 ion-ion   energy    :   0.1486482864E+03 (    0.12387E+02/ion)

 Kinetic energy (elc)    :   0.1091022003E-01 (    0.60612E-03/elc)
 Kinetic energy (ion)    :   0.1817464430E-01 (    0.15146E-02/ion)

 final kinetic energy:   0.10910E-01 (psi)   0.18175E-01 (ion)
                                             0.11618E-27 (c.o.m.)
 Temperature :           0.0 K (elc)
 Temperature :         438.3 K (ion)
             :           0.0 K (c.o.m.)

 Vaverage  Eaverage :      -0.3352371667E+02  -0.3349450592E+02
 Vvariance Evariance:       0.3697856050E-04   0.1818989404E-11
 Cv - f*kb/(2*nion) :       0.5066368202E-05

 orbital energies:
    -0.1492602E+00 (  -4.062eV)
    -0.2394495E+00 (  -6.516eV)
    -0.2503451E+00 (  -6.812eV)
    -0.2564030E+00 (  -6.977eV)
    -0.3324785E+00 (  -9.047eV)
    -0.3355424E+00 (  -9.131eV)
    -0.3456007E+00 (  -9.404eV)
    -0.3562598E+00 (  -9.694eV)
    -0.3778723E+00 ( -10.283eV)
    -0.4615419E+00 ( -12.559eV)
    -0.4675234E+00 ( -12.722eV)
    -0.4753295E+00 ( -12.934eV)
    -0.4837805E+00 ( -13.164eV)
    -0.4858451E+00 ( -13.221eV)
    -0.6420865E+00 ( -17.472eV)
    -0.6529916E+00 ( -17.769eV)
    -0.6601910E+00 ( -17.965eV)
    -0.8277416E+00 ( -22.524eV)

 Total PSPW energy   :  -0.3352359063E+02


=== Spin Contamination ===
 
 <Sexact^2> =   0.000000000000000E+000
 <S^2>      =   0.000000000000000E+000
 


== Center of Charge ==

spin up     (    0.0025,   -0.0050,    0.0072 )
spin down   (    0.0025,   -0.0050,    0.0072 )
     total  (    0.0025,   -0.0050,    0.0072 )
ionic       (    0.0000,    0.0000,    0.0000 )
crystal     (    0.0022,   -0.0053,   -0.0014 )


== Crystal Dipole ==

mu   =  (   -0.0114,   -0.0101,   -0.3094 ) au
|mu| =     0.3098 au,       0.7874 Debye


== Molecular Dipole wrt Center of Mass ==

mu   =  (   -0.0909,    0.1806,   -0.2590 ) au
|mu| =     0.3285 au,       0.8350 Debye

 output psi filename:./perm/b12.anneal1.movecs

 output vpsi filename:./perm/b12.anneal1.vmovecs
 
 ===== Calculating pair distribution function ====
 
 
 frames used:                     100
 natoms:                           12
 delr:           1.000000000000000E-002
 volume:          8000.00000000000     
 maxbin:                          999
 MOTION filename:     
 ./perm/b12.anneal1.ion_motion                                                  
                                                                                
                                                                                
                   
 g(r)   filename:     
 ./perm/PAIR_DISTRIBUTION                                                       
                                                                                
                                                                                
                   
 
 
 ===== Calculating radial distribution functions ====
 
 
 frames used:                    100
 natoms:                          12
 nkatoms:                          1
 atoms:       
 B                                                                              
                                                                                
                                                                                
                   
 delr:          1.000000000000000E-002
 volume:         8000.00000000000     
    a1:        20.000   0.000   0.000
    a2:         0.000  20.000   0.000
    a3:         0.000   0.000  20.000
 maxbin:                         999
 MOTION filename:    ./perm/b12.anneal1.ion_motion 
 
 creating gr filename:./perm/BB.gr 
 creating hist filename:./perm/BB.hist 
 
 
 ===== Calculating velocity auto correlation ====
 
 
 frames used:                    100
 natoms:                          12
 volume:         8000.00000000000     
 time interval (au)       :    50.0000000000000     
 Max time      (au)       :    4950.00000000000     
 frequency interval (cm-1):    275.976477774143     
 Max frequency (cm-1)     :    13798.8238887072     
 MOTION filename: 
 ./perm/b12.anneal1.ion_motion                                                  
                                                                                
                                                                                
                   
 <v*v>  filename: 
 ./perm/VEL_CORRELATION                                                         
                                                                                
                                                                                
                   
 s(k)   filename: 
 ./perm/POWER_SPECTRUM                                                          
                                                                                
                                                                                
                   
 
 
 -----------------
 cputime in seconds
 prologue    :    1.23519992828369     
 main loop   :    184.628522157669     
 epilogue    :   0.647882938385010     
 total       :    186.511605024338     
 cputime/step:   0.184628522157669     
 


Time spent doing                        total          step
  FFTs                       :   0.168956E+02  0.168956E-01
  dot products               :   0.152418E+02  0.152418E-01
  geodesic                   :   0.116033E+00  0.116033E-03
  ffm_dgemm                  :   0.183686E+01  0.183686E-02
  fmf_dgemm                  :   0.641403E+00  0.641403E-03
  m_diagonalize              :   0.879765E-04  0.879765E-07
    - m_tredq                :   0.000000E+00  0.000000E+00
    - m_getdiags             :   0.000000E+00  0.000000E+00
    - m_tqliq                :   0.000000E+00  0.000000E+00
    - m_eigsrt               :   0.000000E+00  0.000000E+00
  exchange correlation       :   0.135271E+01  0.135271E-02
  local pseudopotentials     :   0.108873E+03  0.108873E+00
  non-local pseudopotentials :   0.170372E+02  0.170372E-01
  hartree potentials         :   0.000000E+00  0.000000E+00
  ion-ion interaction        :   0.000000E+00  0.000000E+00
  structure factors          :   0.277244E+00  0.277244E-03
  phase factors              :   0.136034E-01  0.136034E-04
  masking and packing        :   0.530944E+01  0.530944E-02
  queue fft                  :   0.342587E+02  0.342587E-01
  queue fft (serial)         :   0.191391E+02  0.191391E-01
  queue fft (message passing):   0.146315E+02  0.146315E-01
  HFX potential              :   0.000000E+00  0.000000E+00
  qmmm LJ                    :   0.000000E+00  0.000000E+00
  qmmm residual Q            :   0.000000E+00  0.000000E+00
     >>>  JOB COMPLETED     AT Tue Aug 10 13:21:12 2010  <<<

 Task  times  cpu:      178.1s     wall:      186.5s
 
 
                                NWChem Input Module
                                -------------------
 
 
 >>>> PSPW Parallel Module - Car-Parrinello <<<<
          ****************************************************
          *                                                  *
          *     Car-Parrinello microcluster calculation      *
          *                                                  *
          *      [   extended Lagrangian molecular   ]       *
          *      [        dynamics simulation        ]       *
          *                                                  *
          *      [ NorthWest Chemistry implementation ]      *
          *                                                  *
          *            version #5.00   06/01/99              *
          *                                                  *
          *    This code was developed by Eric J. Bylaska,   *
          *    and was based upon algorithms and code        *
          *    developed by the group of Prof. John H. Weare *
          *                                                  *
          ****************************************************
     >>>  JOB STARTED       AT Tue Aug 10 13:21:12 2010  <<<
          ================ input data ========================

 input psi filename:./perm/b12.anneal1.movecs

 input vpsi filename:./perm/b12.anneal1.vmovecs

 number of processors used:         6
 processor grid           :   6 x   1
 parallel mapping         : hilbert
 parallel mapping         : balanced

 options:
      boundary conditions  = aperiodic   (version4)
      electron spin        = restricted
      exchange-correlation = LDA (Vosko et al) parameterization

 elements involved in the cluster:
      1: B     core charge: 3.0  lmax=2
             highest angular component      :  2
             local potential used           :  2
             number of non-local projections:  4
             aperiodic cutoff radius        :  1.000
             cutoff =   1.100   0.900   1.100

 total charge=   0.000

 atomic composition:
     B   : 12

 initial position of ions:
        1 B    (    2.10013    0.11287   -2.03034 ) - atomic mass=  11.009 
        2 B    (    1.68712   -2.49532   -0.21074 ) - atomic mass=  11.009 
        3 B    (    1.42038    2.76823   -0.57857 ) - atomic mass=  11.009 
        4 B    (   -1.59855   -2.62730    0.29507 ) - atomic mass=  11.009 
        5 B    (   -1.51488    2.46784    0.29643 ) - atomic mass=  11.009 
        6 B    (   -2.03926   -0.11269    2.17304 ) - atomic mass=  11.009 
        7 B    (    2.80817    0.19037    0.85920 ) - atomic mass=  11.009 
        8 B    (   -0.39937   -1.67699   -2.36394 ) - atomic mass=  11.009 
        9 B    (   -0.62049    1.41769   -2.44065 ) - atomic mass=  11.009 
       10 B    (   -2.86866   -0.00486   -0.86444 ) - atomic mass=  11.009 
       11 B    (    0.45052    1.55829    2.43557 ) - atomic mass=  11.009 
       12 B    (    0.57488   -1.59815    2.42938 ) - atomic mass=  11.009 
        G.C.   (    0.00000    0.00000    0.00000 )
        C.O.M. (    0.00000    0.00000    0.00000 )

 initial velocity of ions:
        1 B    (   -0.00055    0.00004   -0.00012 )
        2 B    (    0.00115   -0.00003   -0.00040 )
        3 B    (    0.00082   -0.00026    0.00027 )
        4 B    (    0.00004    0.00006    0.00001 )
        5 B    (   -0.00053    0.00065   -0.00015 )
        6 B    (   -0.00046    0.00076   -0.00032 )
        7 B    (   -0.00064   -0.00013    0.00078 )
        8 B    (    0.00013   -0.00045    0.00006 )
        9 B    (   -0.00038    0.00037    0.00005 )
       10 B    (    0.00041   -0.00008   -0.00037 )
       11 B    (    0.00053   -0.00026   -0.00008 )
       12 B    (   -0.00053   -0.00068    0.00029 )
        G.C.   (    0.00000    0.00000    0.00000 )
        C.O.M. (    0.00000    0.00000    0.00000 )

 number of electrons: spin up=    18 (  18 per task)  down=    18 (  18 per task) (fourier space)
 number of orbitals : spin up=    18 (  18 per task)  down=    18 (  18 per task) (fourier space)

 supercell:
      lattice:    a1=<  20.000   0.000   0.000 >
                  a2=<   0.000  20.000   0.000 >
                  a3=<   0.000   0.000  20.000 >
      reciprocal: b1=<   0.314   0.000   0.000 >
                  b2=<   0.000   0.314   0.000 >
                  b3=<   0.000   0.000   0.314 >
      volume :       8000.0
      density cutoff= 20.000  fft= 42x 42x 42(    17133 waves     2855 per task)
      wavefnc cutoff= 10.000  fft= 42x 42x 42(     6027 waves     1004 per task)

 technical parameters:
      translation contrained
      time step=      5.00     ficticious mass=     500.0
      cooling/heatting rates:  0.10000E+01 (psi)   0.20000E+01 (ion)
      maximum iterations =    1000 (   10 inner  100 outer )
      initial kinetic energy:  0.54551E-02 (psi)   0.18175E-01 (ion)
                                                   0.11618E-27 (c.o.m.)
      after scaling:           0.54551E-02 (psi)   0.72699E-01 (ion)
      increased energy:        0.00000E+00 (psi)   0.54524E-01 (ion)

 Constant Energy Simulation                     



          ============ Car-Parrinello iteration ==============
     >>>  ITERATION STARTED AT Tue Aug 10 13:21:13 2010  <<<
    iter.         KE+Energy             Energy        KE_psi        KE_ion   Temperature
    ------------------------------------------------------------------------------------
      10  -0.3343997234E+02  -0.3352378688E+02   0.11184E-01   0.72631E-01       1530.46
      20  -0.3343997360E+02  -0.3352441957E+02   0.11434E-01   0.73012E-01       1537.33
      30  -0.3343997473E+02  -0.3352364919E+02   0.14173E-01   0.69502E-01       1524.89
      40  -0.3343997619E+02  -0.3351992549E+02   0.16759E-01   0.63190E-01       1493.56
      50  -0.3343997628E+02  -0.3351110145E+02   0.16829E-01   0.54296E-01       1441.84
      60  -0.3343997198E+02  -0.3349695153E+02   0.12234E-01   0.44745E-01       1374.68
      70  -0.3343996630E+02  -0.3348430044E+02   0.78477E-02   0.36486E-01       1299.69
      80  -0.3343996857E+02  -0.3348072016E+02   0.98215E-02   0.30930E-01       1225.48
      90  -0.3343997362E+02  -0.3348366577E+02   0.15312E-01   0.28380E-01       1158.61
     100  -0.3343997561E+02  -0.3348572113E+02   0.17767E-01   0.27979E-01       1102.31
     110  -0.3343997265E+02  -0.3348447821E+02   0.15859E-01   0.28646E-01       1056.65
     120  -0.3343997206E+02  -0.3348373048E+02   0.13817E-01   0.29941E-01       1020.34
     130  -0.3343997329E+02  -0.3348439647E+02   0.12648E-01   0.31775E-01        992.10
     140  -0.3343997034E+02  -0.3348529928E+02   0.11220E-01   0.34109E-01        971.03
     150  -0.3343997050E+02  -0.3349033450E+02   0.13261E-01   0.37103E-01        956.49
     160  -0.3343997699E+02  -0.3349866633E+02   0.17836E-01   0.40853E-01        948.22
     170  -0.3343997587E+02  -0.3350235309E+02   0.17441E-01   0.44936E-01        945.84
     180  -0.3343997366E+02  -0.3350223874E+02   0.13948E-01   0.48317E-01        948.11
     190  -0.3343997330E+02  -0.3350148727E+02   0.11152E-01   0.50362E-01        953.11
     200  -0.3343997254E+02  -0.3350110737E+02   0.10467E-01   0.50668E-01        958.77
     210  -0.3343997361E+02  -0.3350224049E+02   0.12933E-01   0.49334E-01        963.29
     220  -0.3343997612E+02  -0.3350350244E+02   0.17265E-01   0.46262E-01        965.21
     230  -0.3343997869E+02  -0.3350145281E+02   0.19674E-01   0.41800E-01        963.44
     240  -0.3343997610E+02  -0.3349346340E+02   0.16834E-01   0.36653E-01        957.50
     250  -0.3343997016E+02  -0.3348304124E+02   0.10850E-01   0.32221E-01        947.96
     260  -0.3343996851E+02  -0.3347865706E+02   0.91864E-02   0.29502E-01        936.30
     270  -0.3343997486E+02  -0.3348232780E+02   0.13778E-01   0.28575E-01        924.17
     280  -0.3343997629E+02  -0.3348635042E+02   0.17602E-01   0.28772E-01        912.72
     290  -0.3343997572E+02  -0.3348850000E+02   0.18788E-01   0.29737E-01        902.50
     300  -0.3343997648E+02  -0.3348896473E+02   0.17394E-01   0.31595E-01        893.98
     310  -0.3343997143E+02  -0.3348826733E+02   0.13768E-01   0.34528E-01        887.65
     320  -0.3343997140E+02  -0.3349198819E+02   0.13468E-01   0.38549E-01        884.04
     330  -0.3343997593E+02  -0.3350048298E+02   0.17410E-01   0.43097E-01        883.44
     340  -0.3343997888E+02  -0.3350794055E+02   0.20763E-01   0.47199E-01        885.58
     350  -0.3343997701E+02  -0.3351025042E+02   0.19925E-01   0.50348E-01        889.73
     360  -0.3343997272E+02  -0.3350965979E+02   0.16798E-01   0.52889E-01        895.28
     370  -0.3343997580E+02  -0.3351130006E+02   0.16178E-01   0.55146E-01        901.88
     380  -0.3343997691E+02  -0.3351197824E+02   0.15411E-01   0.56591E-01        909.17
     390  -0.3343997294E+02  -0.3351045210E+02   0.13772E-01   0.56707E-01        916.49
     400  -0.3343997597E+02  -0.3351120689E+02   0.15729E-01   0.55502E-01        923.12
     410  -0.3343998013E+02  -0.3351040380E+02   0.17356E-01   0.53068E-01        928.44
     420  -0.3343997489E+02  -0.3350298246E+02   0.13665E-01   0.49343E-01        931.95
     430  -0.3343997052E+02  -0.3349554532E+02   0.10786E-01   0.44789E-01        933.23
     440  -0.3343997466E+02  -0.3349406696E+02   0.14211E-01   0.39881E-01        932.16
     450  -0.3343997908E+02  -0.3349340629E+02   0.18220E-01   0.35208E-01        928.90
     460  -0.3343997572E+02  -0.3348792982E+02   0.17051E-01   0.30903E-01        923.72
     470  -0.3343997326E+02  -0.3348151674E+02   0.14185E-01   0.27358E-01        917.02
     480  -0.3343997281E+02  -0.3347795108E+02   0.13087E-01   0.24892E-01        909.29
     490  -0.3343997481E+02  -0.3347768533E+02   0.13770E-01   0.23940E-01        901.16
     500  -0.3343997542E+02  -0.3347821100E+02   0.13596E-01   0.24639E-01        893.34
     510  -0.3343997351E+02  -0.3347953235E+02   0.12710E-01   0.26849E-01        886.45
     520  -0.3343997655E+02  -0.3348316700E+02   0.12882E-01   0.30308E-01        881.03
     530  -0.3343997481E+02  -0.3348635887E+02   0.12328E-01   0.34056E-01        877.27
     540  -0.3343997509E+02  -0.3349061952E+02   0.13021E-01   0.37623E-01        875.08
     550  -0.3343997769E+02  -0.3349572923E+02   0.15037E-01   0.40715E-01        874.25
     560  -0.3343997722E+02  -0.3349858331E+02   0.15661E-01   0.42945E-01        874.44
     570  -0.3343997662E+02  -0.3349978000E+02   0.15788E-01   0.44015E-01        875.20
     580  -0.3343997797E+02  -0.3350060097E+02   0.16188E-01   0.44435E-01        876.18
     590  -0.3343997856E+02  -0.3349925579E+02   0.14563E-01   0.44714E-01        877.24
     600  -0.3343997326E+02  -0.3349631554E+02   0.11729E-01   0.44613E-01        878.30
     610  -0.3343997707E+02  -0.3349789475E+02   0.13614E-01   0.44304E-01        879.24
     620  -0.3343997852E+02  -0.3350002830E+02   0.15465E-01   0.44585E-01        880.12
     630  -0.3343997515E+02  -0.3350046131E+02   0.14663E-01   0.45823E-01        881.25
     640  -0.3343997687E+02  -0.3350310446E+02   0.15618E-01   0.47510E-01        882.86
     650  -0.3343997778E+02  -0.3350640906E+02   0.17364E-01   0.49068E-01        884.94
     660  -0.3343997752E+02  -0.3350889475E+02   0.18740E-01   0.50177E-01        887.39
     670  -0.3343997915E+02  -0.3351126400E+02   0.20397E-01   0.50888E-01        890.04
     680  -0.3343998044E+02  -0.3351109300E+02   0.19916E-01   0.51197E-01        892.76
     690  -0.3343997611E+02  -0.3350687424E+02   0.15902E-01   0.50996E-01        895.43
     700  -0.3343997440E+02  -0.3350442419E+02   0.14404E-01   0.50045E-01        897.83
     710  -0.3343997991E+02  -0.3350568823E+02   0.17654E-01   0.48054E-01        899.72
     720  -0.3343997840E+02  -0.3350472863E+02   0.19367E-01   0.45383E-01        900.85
     730  -0.3343997645E+02  -0.3350229876E+02   0.19014E-01   0.43308E-01        901.24
     740  -0.3343997657E+02  -0.3350122883E+02   0.18746E-01   0.42506E-01        901.23
     750  -0.3343997945E+02  -0.3350112700E+02   0.18720E-01   0.42427E-01        901.12
     760  -0.3343997679E+02  -0.3349914614E+02   0.16964E-01   0.42206E-01        901.00
     770  -0.3343997536E+02  -0.3349830893E+02   0.16560E-01   0.41773E-01        900.77
     780  -0.3343997973E+02  -0.3350031191E+02   0.19032E-01   0.41300E-01        900.42
     790  -0.3343998062E+02  -0.3349979511E+02   0.18787E-01   0.41028E-01        899.99
     800  -0.3343997626E+02  -0.3349598056E+02   0.15226E-01   0.40778E-01        899.50
     810  -0.3343997754E+02  -0.3349382745E+02   0.13771E-01   0.40079E-01        898.91
     820  -0.3343997708E+02  -0.3349277744E+02   0.14216E-01   0.38584E-01        898.05
     830  -0.3343997836E+02  -0.3349254421E+02   0.16291E-01   0.36275E-01        896.71
     840  -0.3343997949E+02  -0.3349192445E+02   0.18441E-01   0.33504E-01        894.75
     850  -0.3343997819E+02  -0.3348946508E+02   0.18487E-01   0.31000E-01        892.17
     860  -0.3343997765E+02  -0.3348716101E+02   0.17443E-01   0.29741E-01        889.18
     870  -0.3343997718E+02  -0.3348618621E+02   0.15947E-01   0.30262E-01        886.19
     880  -0.3343997796E+02  -0.3348706034E+02   0.14676E-01   0.32406E-01        883.62
     890  -0.3343997742E+02  -0.3348876759E+02   0.13643E-01   0.35147E-01        881.72
     900  -0.3343997753E+02  -0.3349216638E+02   0.14728E-01   0.37461E-01        880.45
     910  -0.3343998063E+02  -0.3349675464E+02   0.17408E-01   0.39366E-01        879.69
     920  -0.3343997896E+02  -0.3349878347E+02   0.17765E-01   0.41040E-01        879.35
     930  -0.3343997842E+02  -0.3350008255E+02   0.17789E-01   0.42315E-01        879.36
     940  -0.3343998244E+02  -0.3350138264E+02   0.18709E-01   0.42692E-01        879.55
     950  -0.3343997914E+02  -0.3349820421E+02   0.16293E-01   0.41932E-01        879.68
     960  -0.3343997525E+02  -0.3349458706E+02   0.14443E-01   0.40169E-01        879.51
     970  -0.3343998040E+02  -0.3349507208E+02   0.16969E-01   0.38123E-01        878.91
     980  -0.3343997911E+02  -0.3349424202E+02   0.17570E-01   0.36692E-01        877.95
     990  -0.3343998029E+02  -0.3349244704E+02   0.16375E-01   0.36091E-01        876.81
    1000  -0.3343997757E+02  -0.3348891413E+02   0.13319E-01   0.35617E-01        875.59
 *** arived at the Maximum iteration.   terminated.
     >>>  ITERATION ENDED   AT Tue Aug 10 13:24:15 2010  <<<


 Elapsed time of simulation was 120.944 fs



          =============  summary of results  =================

 final position of ions:
        1 B    (    3.00153    0.10100   -1.25040 ) - atomic mass=  11.009 
        2 B    (    1.46150   -2.63184   -0.14894 ) - atomic mass=  11.009 
        3 B    (    1.73573    2.54434    0.26765 ) - atomic mass=  11.009 
        4 B    (   -2.27767   -2.31168   -0.10520 ) - atomic mass=  11.009 
        5 B    (   -1.13497    2.71344    0.11995 ) - atomic mass=  11.009 
        6 B    (   -2.59539    0.31564    1.23358 ) - atomic mass=  11.009 
        7 B    (    2.40505   -0.47196    1.75594 ) - atomic mass=  11.009 
        8 B    (   -0.13457   -1.74206   -2.76180 ) - atomic mass=  11.009 
        9 B    (    0.32847    1.69923   -2.30213 ) - atomic mass=  11.009 
       10 B    (   -2.33467    0.28238   -1.77234 ) - atomic mass=  11.009 
       11 B    (   -0.11782    1.23615    2.69063 ) - atomic mass=  11.009 
       12 B    (   -0.33719   -1.73465    2.27307 ) - atomic mass=  11.009 
        G.C.   (    0.00000    0.00000    0.00000 )
        C.O.M. (    0.00000    0.00000    0.00000 )

 final velocity of ions:
        1 B    (    0.00018   -0.00012    0.00094 )
        2 B    (   -0.00064   -0.00014    0.00025 )
        3 B    (   -0.00008    0.00028    0.00043 )
        4 B    (    0.00028    0.00031   -0.00016 )
        5 B    (   -0.00011    0.00063   -0.00009 )
        6 B    (   -0.00009    0.00009    0.00008 )
        7 B    (    0.00030   -0.00054   -0.00010 )
        8 B    (    0.00013   -0.00002   -0.00044 )
        9 B    (   -0.00010   -0.00046   -0.00010 )
       10 B    (    0.00000   -0.00001   -0.00019 )
       11 B    (   -0.00004    0.00013   -0.00017 )
       12 B    (    0.00019   -0.00017   -0.00046 )
        G.C.   (    0.00000    0.00000    0.00000 )
        C.O.M. (    0.00000    0.00000    0.00000 )
 
 number of electrons: spin up=   18.00000  down=   18.00000 (real space)

 total     energy    :  -0.3348891413E+02 (   -0.27907E+01/ion)
 total orbital energy:  -0.1534432830E+02 (   -0.85246E+00/electron)
 hartree   energy    :   0.1682394982E+03 (    0.93466E+01/electron)
 exc-corr  energy    :  -0.1269453668E+02 (   -0.70525E+00/electron)
 ion-ion   energy    :   0.1462046601E+03 (    0.12184E+02/ion)

 Kinetic energy (elc)    :   0.1331919951E-01 (    0.73996E-03/elc)
 Kinetic energy (ion)    :   0.3561735997E-01 (    0.29681E-02/ion)

 final kinetic energy:   0.13319E-01 (psi)   0.35617E-01 (ion)
                                             0.11456E-28 (c.o.m.)
 Temperature :           0.0 K (elc)
 Temperature :         875.6 K (ion)
             :           0.0 K (c.o.m.)

 Vaverage  Eaverage :      -0.3351026541E+02  -0.1671998796E+02
 Vvariance Evariance:       0.2541762988E-03   0.2795579973E+03
 Cv - f*kb/(2*nion) :       0.8724418494E-05

 orbital energies:
    -0.1627306E+00 (  -4.428eV)
    -0.2309786E+00 (  -6.285eV)
    -0.2490112E+00 (  -6.776eV)
    -0.2511437E+00 (  -6.834eV)
    -0.3095385E+00 (  -8.423eV)
    -0.3299815E+00 (  -8.979eV)
    -0.3382757E+00 (  -9.205eV)
    -0.3479029E+00 (  -9.467eV)
    -0.3750268E+00 ( -10.205eV)
    -0.4525205E+00 ( -12.314eV)
    -0.4588770E+00 ( -12.487eV)
    -0.4682349E+00 ( -12.741eV)
    -0.4745763E+00 ( -12.914eV)
    -0.4865727E+00 ( -13.240eV)
    -0.6263659E+00 ( -17.044eV)
    -0.6470781E+00 ( -17.608eV)
    -0.6508122E+00 ( -17.710eV)
    -0.8125369E+00 ( -22.110eV)

 Total PSPW energy   :  -0.3348891413E+02


=== Spin Contamination ===
 
 <Sexact^2> =   0.000000000000000E+000
 <S^2>      =   0.000000000000000E+000
 


== Center of Charge ==

spin up     (    0.0075,   -0.0129,   -0.0136 )
spin down   (    0.0075,   -0.0129,   -0.0136 )
     total  (    0.0075,   -0.0129,   -0.0136 )
ionic       (    0.0000,    0.0000,    0.0000 )
crystal     (   -0.0034,    0.0020,   -0.0113 )


== Crystal Dipole ==

mu   =  (   -0.3915,    0.5373,    0.0856 ) au
|mu| =     0.6703 au,       1.7036 Debye


== Molecular Dipole wrt Center of Mass ==

mu   =  (   -0.2691,    0.4642,    0.4909 ) au
|mu| =     0.7272 au,       1.8483 Debye

 output psi filename:./perm/b12.anneal1.movecs

 output vpsi filename:./perm/b12.anneal1.vmovecs
 
 ===== Calculating pair distribution function ====
 
 
 frames used:                     200
 natoms:                           12
 delr:           1.000000000000000E-002
 volume:          8000.00000000000     
 maxbin:                          999
 MOTION filename:     
 ./perm/b12.anneal1.ion_motion                                                  
                                                                                
                                                                                
                   
 g(r)   filename:     
 ./perm/PAIR_DISTRIBUTION                                                       
                                                                                
                                                                                
                   
 
 
 ===== Calculating radial distribution functions ====
 
 
 frames used:                    200
 natoms:                          12
 nkatoms:                          1
 atoms:       
 B                                                                              
                                                                                
                                                                                
                   
 delr:          1.000000000000000E-002
 volume:         8000.00000000000     
    a1:        20.000   0.000   0.000
    a2:         0.000  20.000   0.000
    a3:         0.000   0.000  20.000
 maxbin:                         999
 MOTION filename:    ./perm/b12.anneal1.ion_motion 
 
 creating gr filename:./perm/BB.gr 
 creating hist filename:./perm/BB.hist 
 
 
 ===== Calculating velocity auto correlation ====
 
 
 frames used:                    200
 natoms:                          12
 volume:         8000.00000000000     
 time interval (au)       :    50.0000000000000     
 Max time      (au)       :    9950.00000000000     
 frequency interval (cm-1):    137.988238887072     
 Max frequency (cm-1)     :    13798.8238887072     
 MOTION filename: 
 ./perm/b12.anneal1.ion_motion                                                  
                                                                                
                                                                                
                   
 <v*v>  filename: 
 ./perm/VEL_CORRELATION                                                         
                                                                                
                                                                                
                   
 s(k)   filename: 
 ./perm/POWER_SPECTRUM                                                          
                                                                                
                                                                                
                   
 
 
 -----------------
 cputime in seconds
 prologue    :    1.17091917991638     
 main loop   :    181.872177839279     
 epilogue    :   0.647233009338379     
 total       :    183.690330028534     
 cputime/step:   0.181872177839279     
 


Time spent doing                        total          step
  FFTs                       :   0.169367E+02  0.169367E-01
  dot products               :   0.218703E+02  0.218703E-01
  geodesic                   :   0.119773E+00  0.119773E-03
  ffm_dgemm                  :   0.181162E+01  0.181162E-02
  fmf_dgemm                  :   0.587662E+00  0.587662E-03
  m_diagonalize              :   0.191927E-03  0.191927E-06
    - m_tredq                :   0.000000E+00  0.000000E+00
    - m_getdiags             :   0.000000E+00  0.000000E+00
    - m_tqliq                :   0.000000E+00  0.000000E+00
    - m_eigsrt               :   0.000000E+00  0.000000E+00
  exchange correlation       :   0.127082E+01  0.127082E-02
  local pseudopotentials     :   0.108234E+03  0.108234E+00
  non-local pseudopotentials :   0.169973E+02  0.169973E-01
  hartree potentials         :   0.000000E+00  0.000000E+00
  ion-ion interaction        :   0.000000E+00  0.000000E+00
  structure factors          :   0.258323E+00  0.258323E-03
  phase factors              :   0.129600E-01  0.129600E-04
  masking and packing        :   0.490769E+01  0.490769E-02
  queue fft                  :   0.324490E+02  0.324490E-01
  queue fft (serial)         :   0.179281E+02  0.179281E-01
  queue fft (message passing):   0.140575E+02  0.140575E-01
  HFX potential              :   0.000000E+00  0.000000E+00
  qmmm LJ                    :   0.000000E+00  0.000000E+00
  qmmm residual Q            :   0.000000E+00  0.000000E+00
     >>>  JOB COMPLETED     AT Tue Aug 10 13:24:16 2010  <<<

 Task  times  cpu:      168.1s     wall:      183.7s
 
 
                                NWChem Input Module
                                -------------------
 
 
 >>>> PSPW Parallel Module - Car-Parrinello <<<<
          ****************************************************
          *                                                  *
          *     Car-Parrinello microcluster calculation      *
          *                                                  *
          *      [   extended Lagrangian molecular   ]       *
          *      [        dynamics simulation        ]       *
          *                                                  *
          *      [ NorthWest Chemistry implementation ]      *
          *                                                  *
          *            version #5.00   06/01/99              *
          *                                                  *
          *    This code was developed by Eric J. Bylaska,   *
          *    and was based upon algorithms and code        *
          *    developed by the group of Prof. John H. Weare *
          *                                                  *
          ****************************************************
     >>>  JOB STARTED       AT Tue Aug 10 13:24:16 2010  <<<
          ================ input data ========================

 input psi filename:./perm/b12.anneal1.movecs

 input vpsi filename:./perm/b12.anneal1.vmovecs

 number of processors used:         6
 processor grid           :   6 x   1
 parallel mapping         : hilbert
 parallel mapping         : balanced

 options:
      boundary conditions  = aperiodic   (version4)
      electron spin        = restricted
      exchange-correlation = LDA (Vosko et al) parameterization

 elements involved in the cluster:
      1: B     core charge: 3.0  lmax=2
             highest angular component      :  2
             local potential used           :  2
             number of non-local projections:  4
             aperiodic cutoff radius        :  1.000
[...]
     160  -0.3313958382E+02  -0.3337923267E+02   0.72329E-01   0.16732E+00       2963.53
     170  -0.3313960553E+02  -0.3338594458E+02   0.75432E-01   0.17091E+00       2998.64
     180  -0.3313959668E+02  -0.3338606251E+02   0.74108E-01   0.17236E+00       3032.97
     190  -0.3313959834E+02  -0.3338329525E+02   0.72545E-01   0.17115E+00       3063.64
     200  -0.3313960147E+02  -0.3338435250E+02   0.77019E-01   0.16773E+00       3088.70
     210  -0.3313961355E+02  -0.3337872702E+02   0.76783E-01   0.16233E+00       3106.84
     220  -0.3313959090E+02  -0.3336742800E+02   0.72349E-01   0.15549E+00       3117.34
     230  -0.3313962411E+02  -0.3336769525E+02   0.78914E-01   0.14916E+00       3120.88
     240  -0.3313958733E+02  -0.3335062825E+02   0.68327E-01   0.14271E+00       3118.59
     250  -0.3313961307E+02  -0.3335189149E+02   0.74424E-01   0.13785E+00       3111.61
     260  -0.3313960491E+02  -0.3335216241E+02   0.76000E-01   0.13656E+00       3102.69
     270  -0.3313960965E+02  -0.3335367294E+02   0.74189E-01   0.13987E+00       3095.42
     280  -0.3313960891E+02  -0.3336020367E+02   0.73959E-01   0.14664E+00       3092.74
     290  -0.3313962011E+02  -0.3336717712E+02   0.74881E-01   0.15268E+00       3095.03
     300  -0.3313961467E+02  -0.3337053996E+02   0.73926E-01   0.15700E+00       3100.83
     310  -0.3313962442E+02  -0.3337383333E+02   0.76713E-01   0.15750E+00       3107.80
     320  -0.3313962053E+02  -0.3337039646E+02   0.76450E-01   0.15433E+00       3113.29
     330  -0.3313962023E+02  -0.3336700480E+02   0.78078E-01   0.14931E+00       3115.67
     340  -0.3313963532E+02  -0.3336223516E+02   0.78155E-01   0.14444E+00       3114.79
     350  -0.3313961208E+02  -0.3335451516E+02   0.74425E-01   0.14048E+00       3111.32
     360  -0.3313964048E+02  -0.3335614098E+02   0.78447E-01   0.13805E+00       3106.15
     370  -0.3313962009E+02  -0.3335325860E+02   0.74722E-01   0.13892E+00       3100.91
     380  -0.3313964301E+02  -0.3335911819E+02   0.77526E-01   0.14195E+00       3097.09
     390  -0.3313962298E+02  -0.3335826291E+02   0.72688E-01   0.14595E+00       3095.54
     400  -0.3313964231E+02  -0.3336494806E+02   0.76749E-01   0.14856E+00       3095.76
     410  -0.3313963382E+02  -0.3336126342E+02   0.72573E-01   0.14906E+00       3096.82
     420  -0.3313963596E+02  -0.3336037525E+02   0.73461E-01   0.14728E+00       3097.33
     430  -0.3313964297E+02  -0.3336031499E+02   0.76135E-01   0.14454E+00       3096.73
     440  -0.3313964100E+02  -0.3335479228E+02   0.73781E-01   0.14137E+00       3094.63
     450  -0.3313963936E+02  -0.3335118697E+02   0.72737E-01   0.13881E+00       3091.37
     460  -0.3313964450E+02  -0.3335096302E+02   0.74541E-01   0.13678E+00       3087.11
     470  -0.3313965037E+02  -0.3335311891E+02   0.76558E-01   0.13691E+00       3082.64
     480  -0.3313963772E+02  -0.3335271194E+02   0.73452E-01   0.13962E+00       3079.05
     490  -0.3313964654E+02  -0.3335964696E+02   0.75718E-01   0.14428E+00       3077.24
     500  -0.3313965115E+02  -0.3336600132E+02   0.76359E-01   0.14999E+00       3077.73
     510  -0.3313964990E+02  -0.3336883537E+02   0.74242E-01   0.15494E+00       3080.55
     520  -0.3313966041E+02  -0.3337051611E+02   0.76439E-01   0.15442E+00       3084.10
     530  -0.3313965421E+02  -0.3336380689E+02   0.75952E-01   0.14820E+00       3086.07
     540  -0.3313965182E+02  -0.3335450527E+02   0.76127E-01   0.13873E+00       3084.68
     550  -0.3313964449E+02  -0.3334328720E+02   0.73671E-01   0.12997E+00       3079.84
     560  -0.3313966222E+02  -0.3334115051E+02   0.77854E-01   0.12363E+00       3072.22
     570  -0.3313963894E+02  -0.3334074550E+02   0.75206E-01   0.12590E+00       3064.15
     580  -0.3313965996E+02  -0.3335625690E+02   0.77579E-01   0.13902E+00       3059.33
     590  -0.3313965378E+02  -0.3337472927E+02   0.76161E-01   0.15891E+00       3060.90
     600  -0.3313966366E+02  -0.3339322483E+02   0.75490E-01   0.17807E+00       3069.43
     610  -0.3313966926E+02  -0.3340912403E+02   0.77897E-01   0.19156E+00       3083.30
     620  -0.3313966438E+02  -0.3341754874E+02   0.78623E-01   0.19926E+00       3100.16
     630  -0.3313966690E+02  -0.3342354041E+02   0.82131E-01   0.20174E+00       3118.09
     640  -0.3313967543E+02  -0.3342577425E+02   0.84716E-01   0.20138E+00       3135.69
     650  -0.3313965724E+02  -0.3341755356E+02   0.78850E-01   0.19905E+00       3152.28
     660  -0.3313967898E+02  -0.3341535967E+02   0.80523E-01   0.19516E+00       3167.35
     670  -0.3313967281E+02  -0.3340514773E+02   0.76788E-01   0.18869E+00       3180.34
     680  -0.3313966570E+02  -0.3339344113E+02   0.75025E-01   0.17875E+00       3190.38
     690  -0.3313968384E+02  -0.3338065445E+02   0.77533E-01   0.16344E+00       3196.24
     700  -0.3313967320E+02  -0.3335932630E+02   0.75675E-01   0.14398E+00       3196.59
     710  -0.3313967944E+02  -0.3333991610E+02   0.76079E-01   0.12416E+00       3190.97
     720  -0.3313967440E+02  -0.3332538637E+02   0.76748E-01   0.10896E+00       3180.37
     730  -0.3313967335E+02  -0.3331775191E+02   0.76793E-01   0.10129E+00       3166.82
     740  -0.3313967522E+02  -0.3331502297E+02   0.72504E-01   0.10284E+00       3152.89
     750  -0.3313967802E+02  -0.3332427839E+02   0.73977E-01   0.11062E+00       3140.85
     760  -0.3313969074E+02  -0.3333839574E+02   0.77690E-01   0.12102E+00       3131.73
     770  -0.3313968178E+02  -0.3334690133E+02   0.75482E-01   0.13174E+00       3125.79
     780  -0.3313968223E+02  -0.3335513140E+02   0.75928E-01   0.13952E+00       3122.50
     790  -0.3313968530E+02  -0.3336064010E+02   0.76126E-01   0.14483E+00       3121.00
     800  -0.3313968680E+02  -0.3336421792E+02   0.76914E-01   0.14762E+00       3120.53
     810  -0.3313968885E+02  -0.3336465187E+02   0.74974E-01   0.14999E+00       3120.72
     820  -0.3313968384E+02  -0.3336661140E+02   0.75837E-01   0.15109E+00       3121.33
     830  -0.3313969949E+02  -0.3337319993E+02   0.79068E-01   0.15443E+00       3122.44
     840  -0.3313968221E+02  -0.3337518585E+02   0.75713E-01   0.15979E+00       3124.70
     850  -0.3313969455E+02  -0.3338250403E+02   0.78204E-01   0.16460E+00       3128.19
     860  -0.3313969688E+02  -0.3338651014E+02   0.77928E-01   0.16889E+00       3132.67
     870  -0.3313970050E+02  -0.3339082194E+02   0.78373E-01   0.17275E+00       3138.07
     880  -0.3313970283E+02  -0.3339315983E+02   0.79373E-01   0.17408E+00       3143.97
     890  -0.3313970178E+02  -0.3339035902E+02   0.78407E-01   0.17225E+00       3149.64
     900  -0.3313970678E+02  -0.3338640275E+02   0.79692E-01   0.16700E+00       3154.31
     910  -0.3313971015E+02  -0.3338180236E+02   0.81913E-01   0.16018E+00       3157.42
     920  -0.3313970661E+02  -0.3336953697E+02   0.77926E-01   0.15190E+00       3158.76
     930  -0.3313970384E+02  -0.3335837973E+02   0.76908E-01   0.14177E+00       3157.94
     940  -0.3313972199E+02  -0.3335199321E+02   0.81422E-01   0.13085E+00       3154.75
     950  -0.3313970633E+02  -0.3333821216E+02   0.77772E-01   0.12073E+00       3149.28
     960  -0.3313971949E+02  -0.3333300752E+02   0.80596E-01   0.11269E+00       3141.96
     970  -0.3313970564E+02  -0.3332157608E+02   0.74940E-01   0.10693E+00       3133.29
     980  -0.3313972087E+02  -0.3332001107E+02   0.76426E-01   0.10386E+00       3123.89
     990  -0.3313971018E+02  -0.3332084468E+02   0.77722E-01   0.10341E+00       3114.33
    1000  -0.3313972410E+02  -0.3332485316E+02   0.79239E-01   0.10589E+00       3105.20
 *** arived at the Maximum iteration.   terminated.
     >>>  ITERATION ENDED   AT Tue Aug 10 13:39:48 2010  <<<


 Elapsed time of simulation was 120.944 fs



          =============  summary of results  =================

 final position of ions:
        1 B    (   -1.44839   -2.01047   -2.70007 ) - atomic mass=  11.009 
        2 B    (    3.18031    1.09546    0.41243 ) - atomic mass=  11.009 
        3 B    (   -0.25372    1.26215   -2.13638 ) - atomic mass=  11.009 
        4 B    (    1.21195   -1.46728   -1.25590 ) - atomic mass=  11.009 
        5 B    (   -3.21465    0.43134   -1.14663 ) - atomic mass=  11.009 
        6 B    (   -2.27740    0.92168    1.57509 ) - atomic mass=  11.009 
        7 B    (    0.86637    0.73263    2.47648 ) - atomic mass=  11.009 
        8 B    (   -2.12306   -2.88511    0.02556 ) - atomic mass=  11.009 
        9 B    (    2.46047    2.57443   -1.96886 ) - atomic mass=  11.009 
       10 B    (   -1.00110   -1.66862    2.44373 ) - atomic mass=  11.009 
       11 B    (    0.14066    2.63479    0.44989 ) - atomic mass=  11.009 
       12 B    (    2.45857   -1.62099    1.82467 ) - atomic mass=  11.009 
        G.C.   (    0.00000    0.00000    0.00000 )
        C.O.M. (    0.00000    0.00000    0.00000 )

 final velocity of ions:
        1 B    (    0.00007    0.00096    0.00007 )
        2 B    (   -0.00052    0.00018    0.00060 )
        3 B    (    0.00029   -0.00104   -0.00013 )
        4 B    (    0.00016    0.00058   -0.00018 )
        5 B    (    0.00027    0.00054   -0.00107 )
        6 B    (   -0.00094    0.00052   -0.00025 )
        7 B    (   -0.00028   -0.00052    0.00057 )
        8 B    (   -0.00019   -0.00013   -0.00035 )
        9 B    (    0.00071   -0.00010   -0.00014 )
       10 B    (   -0.00068   -0.00030   -0.00014 )
       11 B    (    0.00102    0.00024    0.00017 )
       12 B    (    0.00011   -0.00092    0.00084 )
        G.C.   (    0.00000    0.00000    0.00000 )
        C.O.M. (    0.00000    0.00000    0.00000 )
 
 number of electrons: spin up=   18.00008  down=   18.00008 (real space)

 total     energy    :  -0.3332485316E+02 (   -0.27771E+01/ion)
 total orbital energy:  -0.1511260423E+02 (   -0.83959E+00/electron)
 hartree   energy    :   0.1635186114E+03 (    0.90844E+01/electron)
 exc-corr  energy    :  -0.1253439613E+02 (   -0.69636E+00/electron)
 ion-ion   energy    :   0.1414665203E+03 (    0.11789E+02/ion)

 Kinetic energy (elc)    :   0.7923874762E-01 (    0.44022E-02/elc)
 Kinetic energy (ion)    :   0.1058903119E+00 (    0.88242E-02/ion)

 final kinetic energy:   0.79239E-01 (psi)   0.10589E+00 (ion)
                                             0.54483E-28 (c.o.m.)
 Temperature :           0.2 K (elc)
 Temperature :        3105.2 K (ion)
             :           0.0 K (c.o.m.)

 Vaverage  Eaverage :      -0.3335801163E+02  -0.1104654887E+02
 Vvariance Evariance:       0.5267817207E-03   0.2440524837E+03
 Cv - f*kb/(2*nion) :       0.1437639835E-05

 orbital energies:
    -0.1976595E+00 (  -5.379eV)
    -0.2333677E+00 (  -6.350eV)
    -0.2491071E+00 (  -6.779eV)
    -0.2666551E+00 (  -7.256eV)
    -0.2815784E+00 (  -7.662eV)
    -0.3150869E+00 (  -8.574eV)
    -0.3330048E+00 (  -9.062eV)
    -0.3477832E+00 (  -9.464eV)
    -0.3690240E+00 ( -10.042eV)
    -0.4113663E+00 ( -11.194eV)
    -0.4249548E+00 ( -11.564eV)
    -0.4613357E+00 ( -12.554eV)
    -0.4727407E+00 ( -12.864eV)
    -0.4950805E+00 ( -13.472eV)
    -0.5917661E+00 ( -16.103eV)
    -0.6345145E+00 ( -17.266eV)
    -0.6672835E+00 ( -18.158eV)
    -0.8039932E+00 ( -21.878eV)

 Total PSPW energy   :  -0.3332485316E+02


=== Spin Contamination ===
 
 <Sexact^2> =   0.000000000000000E+000
 <S^2>      =   0.000000000000000E+000
 


== Center of Charge ==

spin up     (    0.0075,   -0.0204,   -0.0112 )
spin down   (    0.0075,   -0.0204,   -0.0112 )
     total  (    0.0075,   -0.0204,   -0.0112 )
ionic       (    0.0000,    0.0000,    0.0000 )
crystal     (    0.0077,   -0.0068,    0.0033 )


== Crystal Dipole ==

mu   =  (    0.0067,    0.4907,    0.5235 ) au
|mu| =     0.7175 au,       1.8237 Debye


== Molecular Dipole wrt Center of Mass ==

mu   =  (   -0.2703,    0.7355,    0.4031 ) au
|mu| =     0.8812 au,       2.2397 Debye

 output psi filename:./perm/b12.anneal1.movecs

 output vpsi filename:./perm/b12.anneal1.vmovecs
 
 ===== Calculating pair distribution function ====
 
 
 frames used:                     700
 natoms:                           12
 delr:           1.000000000000000E-002
 volume:          8000.00000000000     
 maxbin:                          999
 MOTION filename:     
 ./perm/b12.anneal1.ion_motion                                                  
                                                                                
                                                                                
                   
 g(r)   filename:     
 ./perm/PAIR_DISTRIBUTION                                                       
                                                                                
                                                                                
                   
 
 
 ===== Calculating radial distribution functions ====
 
 
 frames used:                    700
 natoms:                          12
 nkatoms:                          1
 atoms:       
 B                                                                              
                                                                                
                                                                                
                   
 delr:          1.000000000000000E-002
 volume:         8000.00000000000     
    a1:        20.000   0.000   0.000
    a2:         0.000  20.000   0.000
    a3:         0.000   0.000  20.000
 maxbin:                         999
 MOTION filename:    ./perm/b12.anneal1.ion_motion 
 
 creating gr filename:./perm/BB.gr 
 creating hist filename:./perm/BB.hist 
 
 
 ===== Calculating velocity auto correlation ====
 
 
 frames used:                    700
 natoms:                          12
 volume:         8000.00000000000     
 time interval (au)       :    50.0000000000000     
 Max time      (au)       :    34950.0000000000     
 frequency interval (cm-1):    39.4252111105919     
 Max frequency (cm-1)     :    13798.8238887072     
 MOTION filename: 
 ./perm/b12.anneal1.ion_motion                                                  
                                                                                
                                                                                
                   
 <v*v>  filename: 
 ./perm/VEL_CORRELATION                                                         
                                                                                
                                                                                
                   
 s(k)   filename: 
 ./perm/POWER_SPECTRUM                                                          
                                                                                
                                                                                
                   
 
 
 -----------------
 cputime in seconds
 prologue    :    1.09754395584923     
 main loop   :    175.363136052085     
 epilogue    :   0.881623983383179     
 total       :    177.342303991318     
 cputime/step:   0.175363136052085     
 


Time spent doing                        total          step
  FFTs                       :   0.165663E+02  0.165663E-01
  dot products               :   0.192008E+02  0.192008E-01
  geodesic                   :   0.117205E+00  0.117205E-03
  ffm_dgemm                  :   0.172263E+01  0.172263E-02
  fmf_dgemm                  :   0.571066E+00  0.571066E-03
  m_diagonalize              :   0.920296E-04  0.920296E-07
    - m_tredq                :   0.000000E+00  0.000000E+00
    - m_getdiags             :   0.000000E+00  0.000000E+00
    - m_tqliq                :   0.000000E+00  0.000000E+00
    - m_eigsrt               :   0.000000E+00  0.000000E+00
  exchange correlation       :   0.123018E+01  0.123018E-02
  local pseudopotentials     :   0.103884E+03  0.103884E+00
  non-local pseudopotentials :   0.161739E+02  0.161739E-01
  hartree potentials         :   0.000000E+00  0.000000E+00
  ion-ion interaction        :   0.000000E+00  0.000000E+00
  structure factors          :   0.250112E+00  0.250112E-03
  phase factors              :   0.139768E-01  0.139768E-04
  masking and packing        :   0.475826E+01  0.475826E-02
  queue fft                  :   0.316576E+02  0.316576E-01
  queue fft (serial)         :   0.175431E+02  0.175431E-01
  queue fft (message passing):   0.136664E+02  0.136664E-01
  HFX potential              :   0.000000E+00  0.000000E+00
  qmmm LJ                    :   0.000000E+00  0.000000E+00
  qmmm residual Q            :   0.000000E+00  0.000000E+00
     >>>  JOB COMPLETED     AT Tue Aug 10 13:39:49 2010  <<<

 Task  times  cpu:      156.4s     wall:      177.3s
 
 
                                NWChem Input Module
                                -------------------
 
 
 Summary of allocated global arrays
-----------------------------------
  No active global arrays



                         GA Statistics for process    0
                         ------------------------------

       create   destroy   get      put      acc     scatter   gather  read&inc
calls:    0        0        0        0        0        0        0        0     
number of processes/call 0.00e+00 0.00e+00 0.00e+00 0.00e+00 0.00e+00
bytes total:             0.00e+00 0.00e+00 0.00e+00 0.00e+00 0.00e+00 0.00e+00
bytes remote:            0.00e+00 0.00e+00 0.00e+00 0.00e+00 0.00e+00 0.00e+00
Max memory consumed for GA by this process: 0 bytes
 



                                  ACKNOWLEDGEMENT
                                  ---------------

            Please use the following acknowledgement where appropriate 
            for results obtained with NWChem:

            High Performance Computational Chemistry Group, "NWChem, A
            Computational Chemistry Package for Parallel Computers, 
            Version 5.1.1" (2008), Pacific Northwest National Laboratory,
            Richland, Washington 99352-0999, USA.


                                     CITATION
                                     --------

          Please use the following citation when publishing results
          obtained with NWChem:

          E. J. Bylaska, W. A. de Jong, N. Govind, K. Kowalski, T. P. Straatsma,
          M. Valiev, H. J. J. Van Dam, D. Wang, E. Apra, T. L. Windus, J. Hammond,
          J. Autschbach, P. Nichols, S. Hirata, M. T. Hackler, Y. Zhao, P.-D. Fan,
          R. J. Harrison, M. Dupuis, D. M. A. Smith, J. Nieplocha, V. Tipparaju,
          M. Krishnan, A. Vazquez-Mayagoitia, L. Jensen, M. Swart, Q. Wu,
          T. Van Voorhis, A. A. Auer, M. Nooijen, L. D. Crosby, E. Brown, 
          G. Cisneros, G. I. Fann, H. Fruchtl, J. Garza, K. Hirao,
          R. Kendall, J. A. Nichols, K. Tsemekhman, K. Wolinski, J. Anchell, 
          D. Bernholdt, P. Borowski, T. Clark, D. Clerc, H. Dachsel, M. Deegan, 
          K. Dyall, D. Elwood, E. Glendening, M. Gutowski, A. Hess, J. Jaffe, 
          B. Johnson, J. Ju, R. Kobayashi, R. Kutteh, Z. Lin, R. Littlefield, 
          X. Long, B. Meng, T. Nakajima, S. Niu, L. Pollack, M. Rosing, 
          G. Sandrone, M. Stave, H. Taylor, G. Thomas, J. van Lenthe, 
          A. Wong, and Z. Zhang,
          "NWChem, A Computational Chemistry Package for Parallel Computers, 
          Version 5.1.1" (2008),
                      Pacific Northwest National Laboratory,
                      Richland, Washington 99352-0999, USA.



 Total times  cpu:     1212.1s     wall:     1336.3s
MA_summarize_allocated_blocks: starting scan ...
MA_summarize_allocated_blocks: scan completed: 0 heap blocks, 0 stack blocks
MA usage statistics:

	allocation statistics:
					      heap	     stack
					      ----	     -----
	current number of blocks	         0	         0
	maximum number of blocks	       257	        23
	current total bytes		         0	         0
	maximum total bytes		  16422728	   4198496
	maximum total K-bytes		     16423	      4199
	maximum total M-bytes		        17	         5
