 argument  1 = brucite.nw



============================== echo of input deck ==============================
title "brucite testing - using P-3m1 symmetry"
echo

memory 1500 mb

permanent_dir ./perm
scratch_dir   ./perm

geometry nocenter noautosym noautoz print
  system crystal
    lat_a 3.14979
    lat_b 3.14979
    lat_c 4.7702
    alpha 90.0
    beta  90.0
    gamma 120.0
  end
symmetry P-3m1
Mg   0.00000   0.00000  0.00000
O   0.33333   0.66667   0.22030
H   0.33333   0.66667   0.41300
end
set nwpw:cif_filename brucite

#turn on pseudopotential filtering
set nwpw:kbpp_ray .true.
set nwpw:kbpp_filter .true.


#***** setup the nwpw gamma point code ****
nwpw
   ewald_rcut 3.0
   ewald_ncut 8
   xc pbe96
   lmbfgs
   monkhorst-pack 2 2 1
   #np_dimensions -1 -1 4
end

driver
   clear
   maxiter 21
end

set includestress  .true.          # tell driver to optimize unit cell
set includelattice .true.

task band optimize ignore
================================================================================


                                         
                                         


              Northwest Computational Chemistry Package (NWChem) 6.1
              ------------------------------------------------------


                    Environmental Molecular Sciences Laboratory
                       Pacific Northwest National Laboratory
                                Richland, WA 99352

                              Copyright (c) 1994-2010
                       Pacific Northwest National Laboratory
                            Battelle Memorial Institute

             NWChem is an open-source computational chemistry package
                        distributed under the terms of the
                      Educational Community License (ECL) 2.0
             A copy of the license is included with this distribution
                              in the LICENSE.TXT file

                                  ACKNOWLEDGMENT
                                  --------------

            This software and its documentation were developed at the
            EMSL at Pacific Northwest National Laboratory, a multiprogram
            national laboratory, operated for the U.S. Department of Energy
            by Battelle under Contract Number DE-AC05-76RL01830. Support
            for this work was provided by the Department of Energy Office
            of Biological and Environmental Research, Office of Basic
            Energy Sciences, and the Office of Advanced Scientific Computing.


           Job information
           ---------------

    hostname      = we17860
    program       = nwchem
    date          = Tue Jan 31 19:06:30 2012

    compiled      = Tue_Jan_31_17:06:37_2012
    source        = /Users/bylaska/nwchem-releases/nwchem
    nwchem branch = Development
    input         = brucite.nw
    prefix        = brucite.
    data base     = ./perm/brucite.db
    status        = startup
    nproc         =        1
    time left     =     -1s



           Memory information
           ------------------

    heap     =   49152001 doubles =    375.0 Mbytes
    stack    =   49152001 doubles =    375.0 Mbytes
    global   =   98304000 doubles =    750.0 Mbytes (distinct from heap & stack)
    total    =  196608002 doubles =   1500.0 Mbytes
    verify   = yes
    hardfail = no 


           Directory information
           ---------------------

  0 permanent = ./perm
  0 scratch   = ./perm




                                NWChem Input Module
                                -------------------


                      brucite testing - using P-3m1 symmetry
                      --------------------------------------

  !!!!!!!!!  geom_3d NEEDS TESTING !!!!!!!!!! 


                             Geometry "geometry" -> ""
                             -------------------------

 Output coordinates in angstroms (scale by  1.889725989 to convert to a.u.)

  No.       Tag          Charge          X              Y              Z
 ---- ---------------- ---------- -------------- -------------- --------------
    1 Mg                  12.0000     0.00000000     0.00000000     0.00000000
    2 O                    8.0000     0.90926605     1.57489500     1.05087506
    3 O                    8.0000     1.81853210     0.00000000     3.71932494
    4 H                    1.0000     0.90926605     1.57489500     1.97009260
    5 H                    1.0000     1.81853210     0.00000000     2.80010740

      Lattice Parameters 
      ------------------ 

      lattice vectors in angstroms (scale by  1.889725989 to convert to a.u.)

      a1=<   2.728  -1.575   0.000 >
      a2=<   0.000   3.150   0.000 >
      a3=<   0.000   0.000   4.770 >
      a=       3.150 b=      3.150 c=       4.770
      alpha=  90.000 beta=  90.000 gamma= 120.000
      omega=    41.0

      reciprocal lattice vectors in a.u.

      b1=<   1.219   0.000  -0.000 >
      b2=<   0.609   1.056  -0.000 >
      b3=<   0.000   0.000   0.697 >

      Atomic Mass 
      ----------- 

      Mg                23.985040
      O                 15.994910
      H                  1.007825


      Symmetry information
      --------------------

 Group name                  P-3m1
 Group number            164
 Group order              12
 No. of unique centers     3
 Setting number            1

      Symmetry unique atoms

     1    2    4

 ==============================================================================
                                internuclear distances
 ------------------------------------------------------------------------------
       center one      |      center two      | atomic units |  angstroms
 ------------------------------------------------------------------------------
    2 O                |   1 Mg               |     3.96905  |     2.10033
    4 H                |   2 O                |     1.73707  |     0.91922
    5 H                |   3 O                |     1.73707  |     0.91922
 ------------------------------------------------------------------------------
                         number of included internuclear distances:          3
 ==============================================================================



 ==============================================================================
                                 internuclear angles
 ------------------------------------------------------------------------------
        center 1       |       center 2       |       center 3       |  degrees
 ------------------------------------------------------------------------------
    1 Mg               |   2 O                |   4 H                |   120.02
 ------------------------------------------------------------------------------
                            number of included internuclear angles:          1
 ==============================================================================




  Deleted DRIVER restart files 



                           NWChem Geometry Optimization
                           ----------------------------




                      brucite testing - using P-3m1 symmetry


 maximum gradient threshold         (gmax) =   0.000450
 rms gradient threshold             (grms) =   0.000300
 maximum cartesian step threshold   (xmax) =   0.001800
 rms cartesian step threshold       (xrms) =   0.001200
 fixed trust radius                (trust) =   0.300000
 maximum step size to saddle      (sadstp) =   0.100000
 energy precision                  (eprec) =   1.0D-07
 maximum number of steps          (nptopt) =   21
 initial hessian option           (inhess) =    0
 line search option               (linopt) =    1
 hessian update option            (modupd) =    1
 saddle point option              (modsad) =    0
 initial eigen-mode to follow     (moddir) =    0
 initial variable to follow       (vardir) =    0
 follow first negative mode     (firstneg) =    T
 apply conjugacy                    (opcg) =    F
 source of zmatrix                         =           


          -------------------
          Energy Minimization
          -------------------

  INCLUDING LATTICE GRADIENTS !!!!!

 Using diagonal initial Hessian 
  The initial hessian 

              1        2        3        4        5        6        7        8
    1   28.5530 -14.4491  -0.2010 -10.3219   5.1610  -0.0000 -10.0938   5.1610
    2  -14.4491  28.5530   0.2010   5.1610 -10.0938  -0.1153   5.1610 -10.3219
    3   -0.2010   0.2010  58.1478  -0.0000  -0.1153 -16.0745   0.1153   0.0000
    4  -10.3219   5.1610  -0.0000  14.3939  -7.1970   0.0000  -0.5028   0.2514
    5    5.1610 -10.0938  -0.1153  -7.1970  14.1717   0.1441   0.2514  -0.5028
    6   -0.0000  -0.1153 -16.0745   0.0000   0.1441  58.3474   0.0000  -0.0000
    7  -10.0938   5.1610   0.1153  -0.5028   0.2514   0.0000  14.1717  -7.1970
    8    5.1610 -10.3219   0.0000   0.2514  -0.5028  -0.0000  -7.1970  14.3939
    9    0.1153   0.0000 -16.0745   0.0000  -0.0000  -3.5259  -0.1441  -0.0000
   10   -1.2374   0.6187  -0.0000  -0.3096   0.1548  -0.0000  -0.3808   0.1904
   11    0.6187  -1.1893  -0.0455   0.1548  -0.3096  -0.0000   0.1904  -0.3808
   12   -0.0000  -0.0455  -7.1846  -0.0000  -0.0000 -25.4615  -0.0000   0.0000
   13   -1.1893   0.6187   0.0455  -0.3808   0.1904  -0.0000  -0.3096   0.1548
   14    0.6187  -1.2374   0.0000   0.1904  -0.3808   0.0000   0.1548  -0.3096
   15    0.0455   0.0000  -7.1846  -0.0000   0.0000  -1.6161  -0.0000  -0.0000

              9       10       11       12       13       14       15       16
    1    0.1153  -1.2374   0.6187  -0.0000  -1.1893   0.6187   0.0455   0.0000
    2    0.0000   0.6187  -1.1893  -0.0455   0.6187  -1.2374   0.0000   0.0000
    3  -16.0745  -0.0000  -0.0455  -7.1846   0.0455   0.0000  -7.1846   0.0000
    4    0.0000  -0.3096   0.1548  -0.0000  -0.3808   0.1904  -0.0000   0.0000
    5   -0.0000   0.1548  -0.3096  -0.0000   0.1904  -0.3808   0.0000   0.0000
    6   -3.5259  -0.0000  -0.0000 -25.4615  -0.0000   0.0000  -1.6161   0.0000
    7   -0.1441  -0.3808   0.1904  -0.0000  -0.3096   0.1548  -0.0000   0.0000
    8   -0.0000   0.1904  -0.3808   0.0000   0.1548  -0.3096  -0.0000   0.0000
    9   58.3474  -0.0000   0.0000  -1.6161  -0.0000  -0.0000 -25.4615   0.0000
   10   -0.0000  14.1717  -1.7267   0.0000  -0.8349   0.4175  -0.0000   0.0000
   11    0.0000  -1.7267  14.1717   0.0569   0.4175  -0.8349   0.0000   0.0000
   12   -1.6161   0.0000   0.0569  43.8250  -0.0000   0.0000  -0.7979   0.0000
   13   -0.0000  -0.8349   0.4175  -0.0000  14.1717  -1.7267  -0.0569   0.0000
   14   -0.0000   0.4175  -0.8349   0.0000  -1.7267  14.1717   0.0000   0.0000
   15  -25.4615  -0.0000   0.0000  -0.7979  -0.0569   0.0000  43.8250   0.0000
   16    0.0000   0.0000   0.0000   0.0000   0.0000   0.0000   0.0000   1.7807
   17    0.0000   0.0000   0.0000   0.0000   0.0000   0.0000   0.0000   0.0500
   18    0.0000   0.0000   0.0000   0.0000   0.0000   0.0000   0.0000  -0.0010

             17       18       19       20       21      
   16    0.0500  -0.0010   0.0000   0.0000   0.0000
   17    1.7807  -0.0010   0.0000   0.0000   0.0000
   18   -0.0010   1.3404   0.0000   0.0000   0.0000
   19    0.0000   0.0000 300.0000   0.0000   0.0000
   20    0.0000   0.0000   0.0000 300.0000   0.0000
   21    0.0000   0.0000   0.0000   0.0000 300.0000

          --------
          Step   0
          --------


                         Geometry "geometry" -> "geometry"
                         ---------------------------------

 Output coordinates in angstroms (scale by  1.889725989 to convert to a.u.)

  No.       Tag          Charge          X              Y              Z
 ---- ---------------- ---------- -------------- -------------- --------------
    1 Mg                  12.0000     0.00000000     0.00000000     0.00000000
    2 O                    8.0000     0.90926605     1.57489500     1.05087506
    3 O                    8.0000     1.81853210     0.00000000     3.71932494
    4 H                    1.0000     0.90926605     1.57489500     1.97009260
    5 H                    1.0000     1.81853210     0.00000000     2.80010740

      Lattice Parameters 
      ------------------ 

      lattice vectors in angstroms (scale by  1.889725989 to convert to a.u.)

      a1=<   2.728  -1.575   0.000 >
      a2=<   0.000   3.150   0.000 >
      a3=<   0.000   0.000   4.770 >
      a=       3.150 b=      3.150 c=       4.770
      alpha=  90.000 beta=  90.000 gamma= 120.000
      omega=    41.0

      reciprocal lattice vectors in a.u.

      b1=<   1.219   0.000  -0.000 >
      b2=<   0.609   1.056  -0.000 >
      b3=<  -0.000   0.000   0.697 >

      Atomic Mass 
      ----------- 

      Mg                23.985040
      O                 15.994910
      H                  1.007825


      Symmetry information
      --------------------

 Group name                  P-3m1
 Group number            164
 Group order              12
 No. of unique centers     3
 Setting number            1

      Symmetry unique atoms

     1    2    4

  library name resolved from: compiled reference
  NWCHEM_NWPW_LIBRARY set to: </Users/bylaska/nwchem-releases/nwchem/src/nwpw/libraryps/>
  library name resolved from: compiled reference
  NWCHEM_NWPW_LIBRARY set to: </Users/bylaska/nwchem-releases/nwchem/src/nwpw/libraryps/>
  library name resolved from: compiled reference
  NWCHEM_NWPW_LIBRARY set to: </Users/bylaska/nwchem-releases/nwchem/src/nwpw/libraryps/>
          **********************************************************
          *                                                        *
          *                   NWPW BAND Calculation                *
          *                                                        *
          *  [(bundled Grassman/Stiefel manifold implementation)]  *
          *                                                        *
          *         [ NorthWest Chemistry implementation ]         *
          *                                                        *
          *                version #1.10   01/31/03                *
          *                                                        *
          *  A pseudopotential plane-wave band structure program   *
          *  with Brillouin zone sampling for optimizing crystals, *
          *  slabs, and polymers.  Developed by Eric J. Bylaska    *
          *  , Edoardo Apra, and Patrick Nichols.                  *
          *                                                        *
          **********************************************************
     >>>  JOB STARTED       AT Tue Jan 31 19:06:30 2012  <<<
          ================ input data ========================
  library name resolved from: compiled reference
  NWCHEM_NWPW_LIBRARY set to: </Users/bylaska/nwchem-releases/nwchem/src/nwpw/libraryps/>
 Generating 1d pseudopotential for Mg  

 Generated formatted_filename: ./perm/Mg.cpp
 - Spline fitted, nray= 4485 -
 - filtered -
  library name resolved from: compiled reference
  NWCHEM_NWPW_LIBRARY set to: </Users/bylaska/nwchem-releases/nwchem/src/nwpw/libraryps/>
 Generating 1d pseudopotential for O   

 Generated formatted_filename: ./perm/O.cpp
 - Spline fitted, nray= 4485 -
 - filtered -
  library name resolved from: compiled reference
  NWCHEM_NWPW_LIBRARY set to: </Users/bylaska/nwchem-releases/nwchem/src/nwpw/libraryps/>
 Generating 1d pseudopotential for H   

 Generated formatted_filename: ./perm/H.cpp
 - Spline fitted, nray= 4485 -
 - filtered -
 random planewave guess, initial psi:brucite.movecs                                    
 -   spin, nalpha, nbeta:           1           8           0

 input psi filename:./perm/brucite.movecs
Warning - Orthogonalization performed, spin,zone: 1   1
        - error(before)=  0.999958E+00 (  0.700004E+01)
        - error(after)=   0.124345E-13 (  0.800000E+01)
Warning - Orthogonalization performed, spin,zone: 1   2
        - error(before)=  0.997608E+00 (  0.700239E+01)
        - error(after)=   0.133227E-13 (  0.800000E+01)

 number of processors used:               1
 processor grid           :   1 x   1 x   1
 parallel mapping         :     2d  hilbert

 options:
      boundary conditions  = periodic    (version3)
      electron spin        = restricted
      exchange-correlation = PBE96 (White and Bird) parameterization

 elements involved in the cluster:
      1: Mg    core charge: 2.0  lmax=2
             comment    : Troullier-Martins pseudopotential
             pseudpotential type            :   0
             highest angular component      :   2
             local potential used           :   2
             number of non-local projections:   4
             semicore corrections included  :  1.730 (radius)  0.712 (charge)
             cutoff =   2.592   2.592   2.592
      2: O     core charge: 6.0  lmax=2
             comment    : Parameterized (Chem.Phys.Lett., vol 322, page 447) Hamman psp
             pseudpotential type            :   0
             highest angular component      :   2
             local potential used           :   2
             number of non-local projections:   4
             cutoff =   0.700   0.700   0.700
      3: H     core charge: 1.0  lmax=1
             comment    : Parameterized (Chem.Phys.Lett., vol 322, page 447) Hamman psp
             pseudpotential type            :   0
             highest angular component      :   1
             local potential used           :   1
             number of non-local projections:   1
             cutoff =   0.800   0.800

 total charge:   0.000

 atomic composition:
     Mg  :  1     O   :  2     H   :  2

 number of electrons: spin up=    8.00  spin down=    8.00 (fourier space)
 number of orbitals:  spin up=       8  spin down=       8 (fourier space)

 supercell:
      lattice:    a1=<   5.155  -2.976   0.000 >
                  a2=<   0.000   5.952   0.000 >
                  a3=<   0.000   0.000   9.014 >
      reciprocal: b1=<   1.219   0.000  -0.000 >
                  b2=<   0.609   1.056  -0.000 >
                  b3=<  -0.000   0.000   0.697 >

      lattice:    a=   5.952    b=   5.952     c=   9.014
              alpha=  90.000 beta=  90.000 gamma= 120.000
      volume :      276.6
      ewald summation: cut radius=    3.00  and  8
                        madelung= 1.61745099

 brillouin zone:
      number of zone points:     2
      weight=   0.500  ks=<   0.250   0.250  -0.000 >, k=<   0.457   0.264  -0.000>
      weight=   0.500  ks=<   0.250  -0.250   0.000 >, k=<   0.152  -0.264  -0.000>

 computational grids:
      density     cutoff=100.000  fft=  24x  24x  42(    12515 waves    12515 per task)
      wavefnc   1 cutoff= 50.000  fft=  24x  24x  42(     4677 waves     4677 per task)
      wavefnc   2 cutoff= 50.000  fft=  24x  24x  42(     4694 waves     4694 per task)

 technical parameters:
      time step=      5.80     ficticious mass=  400000.0
      tolerance=.100E-06 (energy)   0.100E-06 (density)
      maximum iterations =      1000 (   10 inner    100 outer )



= energy calculation =


          ======== bundled Grassmann lmbfgs iteration ========
     >>>  ITERATION STARTED AT Tue Jan 31 19:06:44 2012  <<<
    iter.           Energy         DeltaE       DeltaRho 
    ------------------------------------------------------
     -  10 steepest descent iterations performed
      10   -0.3141685812E+02   -0.54272E+00    0.39467E+01
     -  10 steepest descent iterations performed
      20   -0.3376042146E+02   -0.77080E-01    0.76912E-01
     -  10 steepest descent iterations performed
      30   -0.3425159169E+02   -0.21071E-01    0.16298E-01
     -  10 steepest descent iterations performed
      40   -0.3438917445E+02   -0.27710E-02    0.28293E-02
      50   -0.3440401479E+02   -0.14883E-03    0.37814E-03
      60   -0.3440443814E+02   -0.12397E-04    0.87409E-05
      70   -0.3440448027E+02   -0.90936E-06    0.14888E-05
      80   -0.3440448277E+02   -0.68093E-07    0.47430E-07
  *** tolerance ok.    iteration terminated.
     >>>  ITERATION ENDED   AT Tue Jan 31 19:07:09 2012  <<<


          =============  summary of results  =================

 number of electrons: spin up=    8.00000  down=    8.00000 (real space)

 total     energy    :  -0.3440448277E+02 (   -0.68809E+01/ion)
 total orbital energy:  -0.2654541250E+01 (   -0.33182E+00/electron)
 hartree   energy    :   0.1166296669E+02 (    0.14579E+01/electron)
 exc-corr  energy    :  -0.8595581783E+01 (   -0.10744E+01/electron)
 ion-ion   energy    :  -0.2238090816E+02 (   -0.44762E+01/ion)

 K.S. kinetic energy :   0.2417600240E+02 (    0.30220E+01/electron)
 K.S. V_l  energy    :  -0.3731248365E+02 (   -0.46641E+01/electron)
 K.S. V_nl energy    :  -0.1954478271E+01 (   -0.24431E+00/electron)
 K.S. V_Hart energy  :   0.2332593339E+02 (    0.29157E+01/electron)
 K.S. V_xc energy    :  -0.1088951512E+02 (   -0.13612E+01/electron)
 K.S. V_so energy    :   0.0000000000E+00 (    0.00000E+00/electron)
 Virial Coefficient  :  -0.1109800670E+01

 Brillouin zone point:      1
    weight=  0.500000
    k     =<   0.250   0.250  -0.000> . <b1,b2,b3> 
          =<   0.457   0.264  -0.000>

 orbital energies:
     0.4102512E-01 (   1.116eV) occ=1.000
     0.1490385E-01 (   0.406eV) occ=1.000
    -0.6456437E-02 (  -0.176eV) occ=1.000
    -0.2800873E-01 (  -0.762eV) occ=1.000
    -0.9755572E-01 (  -2.655eV) occ=1.000
    -0.1372914E+00 (  -3.736eV) occ=1.000
    -0.5690950E+00 ( -15.486eV) occ=1.000
    -0.5818649E+00 ( -15.833eV) occ=1.000

 Brillouin zone point:      2
    weight=  0.500000
    k     =<   0.250  -0.250   0.000> . <b1,b2,b3> 
          =<   0.152  -0.264  -0.000>

 orbital energies:
     0.6407547E-01 (   1.744eV) occ=1.000
     0.3369233E-01 (   0.917eV) occ=1.000
     0.2051622E-01 (   0.558eV) occ=1.000
    -0.2207441E-02 (  -0.060eV) occ=1.000
    -0.7555101E-01 (  -2.056eV) occ=1.000
    -0.1671328E+00 (  -4.548eV) occ=1.000
    -0.5669715E+00 ( -15.428eV) occ=1.000
    -0.5966193E+00 ( -16.235eV) occ=1.000

 Total BAND energy   :  -0.3440448277E+02


=== Spin Contamination ===

 <Sexact^2> =    0.0000000000000000     
 <S^2>      =    0.0000000000000000     



========================
= Gradient calculation =
========================


Translation force removed: (    0.00001   -0.00002    0.00002)


          =============  Ion Gradients =================
 Ion Forces:
        1 Mg   (   -0.00001    0.00002   -0.00001 )
        2 O    (    0.00062   -0.00109   -0.02920 )
        3 O    (   -0.00061    0.00106    0.02922 )
        4 H    (    0.00016   -0.00025    0.02881 )
        5 H    (   -0.00017    0.00030   -0.02884 )
        C.O.M. (   -0.00000   -0.00000   -0.00000 )
          ===============================================
          |F|       =   0.580609E-01
          |F|/nion  =   0.116122E-01
          max|Fatom|=   0.292423E-01 (   1.504eV/Angstrom)



 Generated formatted_stress_filename: ./perm/Mg.cpp2
 - Spline fitted, nray= 4485 -
 - filtered -

 Generated formatted_stress_filename: ./perm/O.cpp2
 - Spline fitted, nray= 4485 -
 - filtered -

 Generated formatted_stress_filename: ./perm/H.cpp2
 - Spline fitted, nray= 4485 -
 - filtered -


======================
= Stress calculation =
======================


          ============= total gradient ==============
      S =  (    0.01266    0.00097   -0.00006 )
           (   -0.00619    0.01406    0.00010 )
           (   -0.00010    0.00011   -0.00357 )
          ===================================================
          |S|      = 0.20243E-01
          pressure = 0.772E-02 au
                   = 0.227E+01 Mbar
                   = 0.227E+03 GPa
                   = 0.224E+07 atm


       dE/da     =     0.01406
       dE/db     =     0.01406
       dE/dc     =    -0.00357
       dE/dalpha =    -0.00063
       dE/dbeta  =     0.00059
       dE/dgamma =    -0.00578


 Writing Crystallographic Information File:./perm/brucite.cif
   - cell not shifted (nwpw:cif_shift_cell .false.)

 output psi filename:./perm/brucite.movecs


== Timing ==

cputime in seconds
  prologue    :   0.135767E+02
  main loop   :   0.375529E+02
  epilogue    :   0.149516E+00
  total       :   0.512791E+02
  cputime/step:   0.171474E+00       (     219 evalulations,      79 linesearches)


Time spent doing                        total          step
  FFTs                       :   0.273690E+01  0.124973E-01
  dot products               :   0.480892E+01  0.219585E-01
  geodesic                   :   0.302870E+01  0.138297E-01
  ffm_dgemm                  :   0.000000E+00  0.000000E+00
  fmf_dgemm                  :   0.000000E+00  0.000000E+00
  m_diagonalize              :   0.000000E+00  0.000000E+00
    - m_tredq                :   0.000000E+00  0.000000E+00
       - m_tredq_houseq      :   0.000000E+00  0.000000E+00
       - m_tredq_houseq_dgemm:   0.000000E+00  0.000000E+00
       - m_tredq_dgemm1      :   0.000000E+00  0.000000E+00
    - m_getdiags             :   0.000000E+00  0.000000E+00
    - m_tqliq                :   0.000000E+00  0.000000E+00
    - m_eigsrt               :   0.000000E+00  0.000000E+00
  exchange correlation       :   0.445585E+01  0.203463E-01
  local pseudopotentials     :   0.897800E-02  0.409954E-04
  non-local pseudopotentials :   0.166495E+01  0.760249E-02
  hartree potentials         :   0.508740E-01  0.232301E-03
  ion-ion interaction        :   0.240268E+00  0.109711E-02
  structure factors          :   0.106800E+00  0.487671E-03
  phase factors              :   0.000000E+00  0.000000E+00
  masking and packing        :   0.134278E+01  0.613140E-02
  queue fft                  :   0.114724E+02  0.523852E-01
  queue fft (serial)         :   0.677780E+01  0.309488E-01
  queue fft (message passing):   0.426995E+01  0.194975E-01
  HFX potential              :   0.000000E+00  0.000000E+00
  qmmm LJ                    :   0.000000E+00  0.000000E+00
  qmmm residual Q            :   0.000000E+00  0.000000E+00

     >>>  JOB COMPLETED     AT Tue Jan 31 19:07:21 2012  <<<

@ Step       Energy      Delta E   Gmax     Grms     Xrms     Xmax   Walltime
@ ---- ---------------- -------- -------- -------- -------- -------- --------
@    0     -34.40448277  0.0D+00  0.26337  0.11428  0.00000  0.00000     52.0
                                                                    

          **********************************************************
          *                                                        *
          *                   NWPW BAND Calculation                *
          *                                                        *
          *  [(bundled Grassman/Stiefel manifold implementation)]  *
          *                                                        *
          *         [ NorthWest Chemistry implementation ]         *
          *                                                        *
          *                version #1.10   01/31/03                *
          *                                                        *
          *  A pseudopotential plane-wave band structure program   *
          *  with Brillouin zone sampling for optimizing crystals, *
          *  slabs, and polymers.  Developed by Eric J. Bylaska    *
          *  , Edoardo Apra, and Patrick Nichols.                  *
          *                                                        *
          **********************************************************
     >>>  JOB STARTED       AT Tue Jan 31 19:07:21 2012  <<<
          ================ input data ========================
 Brillioun Zone Vectors do not match!

 pseudopotential is not correctly formatted:Mg.cpp                                            

 pseudopotential is not correctly formatted---bad brillioun zone:Mg.cpp                                            

 Generated formatted_filename: ./perm/Mg.cpp
 - Spline fitted, nray= 4490 -
 - filtered -
 Brillioun Zone Vectors do not match!

 pseudopotential is not correctly formatted:O.cpp                                             

 pseudopotential is not correctly formatted---bad brillioun zone:O.cpp                                             

 Generated formatted_filename: ./perm/O.cpp
 - Spline fitted, nray= 4490 -
 - filtered -
 Brillioun Zone Vectors do not match!

 pseudopotential is not correctly formatted:H.cpp                                             

 pseudopotential is not correctly formatted---bad brillioun zone:H.cpp                                             

 Generated formatted_filename: ./perm/H.cpp
 - Spline fitted, nray= 4490 -
 - filtered -
 Error reading psi - bad unitcell
  - Ignored if the following  parameter is set
  - set nwpw:psi_nolattice .true.
 Error reading psi - bad unitcell
  - Ignored if the following  parameter is set
  - set nwpw:psi_nolattice .true.
 Error reading psi - bad unitcell
  - Ignored if the following  parameter is set
  - set nwpw:psi_nolattice .true.

 input psi filename:./perm/brucite.movecs

 number of processors used:               1
 processor grid           :   1 x   1 x   1
 parallel mapping         :     2d  hilbert

 options:
      boundary conditions  = periodic    (version3)
      electron spin        = restricted
      exchange-correlation = PBE96 (White and Bird) parameterization

 elements involved in the cluster:
      1: Mg    core charge: 2.0  lmax=2
             comment    : Troullier-Martins pseudopotential
             pseudpotential type            :   0
             highest angular component      :   2
             local potential used           :   2
             number of non-local projections:   4
             semicore corrections included  :  1.730 (radius)  0.712 (charge)
             cutoff =   2.592   2.592   2.592
      2: O     core charge: 6.0  lmax=2
             comment    : Parameterized (Chem.Phys.Lett., vol 322, page 447) Hamman psp
             pseudpotential type            :   0
             highest angular component      :   2
             local potential used           :   2
             number of non-local projections:   4
             cutoff =   0.700   0.700   0.700
      3: H     core charge: 1.0  lmax=1
             comment    : Parameterized (Chem.Phys.Lett., vol 322, page 447) Hamman psp
             pseudpotential type            :   0
             highest angular component      :   1
             local potential used           :   1
             number of non-local projections:   1
             cutoff =   0.800   0.800

 total charge:   0.000

 atomic composition:
     Mg  :  1     O   :  2     H   :  2

 number of electrons: spin up=    8.00  spin down=    8.00 (fourier space)
 number of orbitals:  spin up=       8  spin down=       8 (fourier space)

 supercell:
      lattice:    a1=<   5.148  -2.972   0.000 >
                  a2=<   0.000   5.945   0.000 >
                  a3=<   0.000   0.000   9.017 >
      reciprocal: b1=<   1.220   0.000  -0.000 >
                  b2=<   0.610   1.057  -0.000 >
                  b3=<  -0.000   0.000   0.697 >

      lattice:    a=   5.945    b=   5.945     c=   9.017
              alpha=  90.000 beta=  90.000 gamma= 120.000
      volume :      276.0
      ewald summation: cut radius=    3.00  and  8
                        madelung= 1.61633504

 brillouin zone:
      number of zone points:     2
      weight=   0.500  ks=<   0.250   0.250  -0.000 >, k=<   0.458   0.264  -0.000>
      weight=   0.500  ks=<   0.250  -0.250   0.000 >, k=<   0.153  -0.264   0.000>

 computational grids:
      density     cutoff=100.000  fft=  24x  24x  42(    12515 waves    12515 per task)
      wavefnc   1 cutoff= 50.000  fft=  24x  24x  42(     4677 waves     4677 per task)
      wavefnc   2 cutoff= 50.000  fft=  24x  24x  42(     4694 waves     4694 per task)

 technical parameters:
      time step=      5.80     ficticious mass=  400000.0
      tolerance=.100E-06 (energy)   0.100E-06 (density)
      maximum iterations =      1000 (   10 inner    100 outer )



= energy calculation =


          ======== bundled Grassmann lmbfgs iteration ========
     >>>  ITERATION STARTED AT Tue Jan 31 19:07:33 2012  <<<
    iter.           Energy         DeltaE       DeltaRho 
    ------------------------------------------------------
      10   -0.3440613611E+02   -0.44052E-04    0.51565E-02
      20   -0.3440625369E+02   -0.15004E-05    0.94904E-05
      30   -0.3440625732E+02   -0.92322E-07    0.32434E-07
  *** tolerance ok.    iteration terminated.
     >>>  ITERATION ENDED   AT Tue Jan 31 19:07:41 2012  <<<


          =============  summary of results  =================

 number of electrons: spin up=    8.00000  down=    8.00000 (real space)

 total     energy    :  -0.3440625732E+02 (   -0.68813E+01/ion)
 total orbital energy:  -0.2586210158E+01 (   -0.32328E+00/electron)
 hartree   energy    :   0.1154218329E+02 (    0.14428E+01/electron)
 exc-corr  energy    :  -0.8567245028E+01 (   -0.10709E+01/electron)
 ion-ion   energy    :  -0.2256328684E+02 (   -0.45127E+01/ion)

 K.S. kinetic energy :   0.2404382216E+02 (    0.30055E+01/electron)
 K.S. V_l  energy    :  -0.3696514509E+02 (   -0.46206E+01/electron)
 K.S. V_nl energy    :  -0.1896585813E+01 (   -0.23707E+00/electron)
 K.S. V_Hart energy  :   0.2308436659E+02 (    0.28855E+01/electron)
 K.S. V_xc energy    :  -0.1085266800E+02 (   -0.13566E+01/electron)
 K.S. V_so energy    :   0.0000000000E+00 (    0.00000E+00/electron)
 Virial Coefficient  :  -0.1107562356E+01

 Brillouin zone point:      1
    weight=  0.500000
    k     =<   0.250   0.250  -0.000> . <b1,b2,b3> 
          =<   0.458   0.264  -0.000>

 orbital energies:
     0.4279596E-01 (   1.165eV) occ=1.000
     0.1590564E-01 (   0.433eV) occ=1.000
    -0.5460929E-02 (  -0.149eV) occ=1.000
    -0.2719510E-01 (  -0.740eV) occ=1.000
    -0.9128643E-01 (  -2.484eV) occ=1.000
    -0.1324806E+00 (  -3.605eV) occ=1.000
    -0.5596835E+00 ( -15.230eV) occ=1.000
    -0.5730226E+00 ( -15.593eV) occ=1.000

 Brillouin zone point:      2
    weight=  0.500000
    k     =<   0.250  -0.250   0.000> . <b1,b2,b3> 
          =<   0.153  -0.264   0.000>

 orbital energies:
     0.6591411E-01 (   1.794eV) occ=1.000
     0.3480082E-01 (   0.947eV) occ=1.000
     0.2173738E-01 (   0.592eV) occ=1.000
    -0.1248735E-02 (  -0.034eV) occ=1.000
    -0.6799539E-01 (  -1.850eV) occ=1.000
    -0.1630760E+00 (  -4.438eV) occ=1.000
    -0.5574609E+00 ( -15.169eV) occ=1.000
    -0.5884539E+00 ( -16.013eV) occ=1.000

 Total BAND energy   :  -0.3440625732E+02


=== Spin Contamination ===

 <Sexact^2> =    0.0000000000000000     
 <S^2>      =    0.0000000000000000     


 Writing Crystallographic Information File:./perm/brucite.cif
   - cell not shifted (nwpw:cif_shift_cell .false.)

 output psi filename:./perm/brucite.movecs


== Timing ==

cputime in seconds
  prologue    :   0.119225E+02
  main loop   :   0.739640E+01
  epilogue    :   0.372600E-01
  total       :   0.193562E+02
  cputime/step:   0.113791E+00       (      65 evalulations,      29 linesearches)


Time spent doing                        total          step
  FFTs                       :   0.800034E+00  0.123082E-01
  dot products               :   0.134429E+01  0.206814E-01
  geodesic                   :   0.103800E+01  0.159692E-01
  ffm_dgemm                  :   0.000000E+00  0.000000E+00
  fmf_dgemm                  :   0.000000E+00  0.000000E+00
  m_diagonalize              :   0.000000E+00  0.000000E+00
    - m_tredq                :   0.000000E+00  0.000000E+00
       - m_tredq_houseq      :   0.000000E+00  0.000000E+00
       - m_tredq_houseq_dgemm:   0.000000E+00  0.000000E+00
       - m_tredq_dgemm1      :   0.000000E+00  0.000000E+00
    - m_getdiags             :   0.000000E+00  0.000000E+00
    - m_tqliq                :   0.000000E+00  0.000000E+00
    - m_eigsrt               :   0.000000E+00  0.000000E+00
  exchange correlation       :   0.131552E+01  0.202388E-01
  local pseudopotentials     :   0.930000E-03  0.143077E-04
  non-local pseudopotentials :   0.477696E+00  0.734917E-02
  hartree potentials         :   0.169880E-01  0.261354E-03
  ion-ion interaction        :   0.314300E-01  0.483538E-03
  structure factors          :   0.317400E-01  0.488308E-03
  phase factors              :   0.000000E+00  0.000000E+00
  masking and packing        :   0.395864E+00  0.609022E-02
  queue fft                  :   0.344698E+01  0.530305E-01
  queue fft (serial)         :   0.206567E+01  0.317795E-01
  queue fft (message passing):   0.125693E+01  0.193374E-01
  HFX potential              :   0.000000E+00  0.000000E+00
  qmmm LJ                    :   0.000000E+00  0.000000E+00
  qmmm residual Q            :   0.000000E+00  0.000000E+00

     >>>  JOB COMPLETED     AT Tue Jan 31 19:07:41 2012  <<<
 Line search: 
     step= 1.00 grad=-3.9D-03 hess= 2.1D-03 energy=    -34.406257 mode=accept  
 new step= 1.00                   predicted energy=    -34.406257

          --------
          Step   1
          --------


                         Geometry "geometry" -> "geometry"
                         ---------------------------------

 Output coordinates in angstroms (scale by  1.889725989 to convert to a.u.)

  No.       Tag          Charge          X              Y              Z
 ---- ---------------- ---------- -------------- -------------- --------------
    1 Mg                  12.0000     0.00000000     0.00000000     0.00000000
    2 O                    8.0000     0.90809341     1.57286392     1.03909963
    3 O                    8.0000     1.81618682     0.00000000     3.73250228
    4 H                    1.0000     0.90809341     1.57286392     1.99199901
    5 H                    1.0000     1.81618682     0.00000000     2.77960290

      Lattice Parameters 
      ------------------ 

      lattice vectors in angstroms (scale by  1.889725989 to convert to a.u.)

      a1=<   2.724  -1.573   0.000 >
      a2=<   0.000   3.146   0.000 >
      a3=<   0.000   0.000   4.772 >
      a=       3.146 b=      3.146 c=       4.772
      alpha=  90.000 beta=  90.000 gamma= 120.000
      omega=    40.9

      reciprocal lattice vectors in a.u.

      b1=<   1.220   0.000  -0.000 >
      b2=<   0.610   1.057  -0.000 >
      b3=<  -0.000   0.000   0.697 >

      Atomic Mass 
      ----------- 

      Mg                23.985040
      O                 15.994910
      H                  1.007825


      Symmetry information
      --------------------

 Group name                  P-3m1
 Group number            164
 Group order              12
 No. of unique centers     3
 Setting number            1

      Symmetry unique atoms

     1    2    4

          **********************************************************
          *                                                        *
          *                   NWPW BAND Calculation                *
          *                                                        *
          *  [(bundled Grassman/Stiefel manifold implementation)]  *
          *                                                        *
          *         [ NorthWest Chemistry implementation ]         *
          *                                                        *
          *                version #1.10   01/31/03                *
          *                                                        *
          *  A pseudopotential plane-wave band structure program   *
          *  with Brillouin zone sampling for optimizing crystals, *
          *  slabs, and polymers.  Developed by Eric J. Bylaska    *
          *  , Edoardo Apra, and Patrick Nichols.                  *
          *                                                        *
          **********************************************************
     >>>  JOB STARTED       AT Tue Jan 31 19:07:41 2012  <<<
          ================ input data ========================

 input psi filename:./perm/brucite.movecs

 number of processors used:               1
 processor grid           :   1 x   1 x   1
 parallel mapping         :     2d  hilbert

 options:
      boundary conditions  = periodic    (version3)
      electron spin        = restricted
      exchange-correlation = PBE96 (White and Bird) parameterization

 elements involved in the cluster:
      1: Mg    core charge: 2.0  lmax=2
             comment    : Troullier-Martins pseudopotential
             pseudpotential type            :   0
             highest angular component      :   2
             local potential used           :   2
             number of non-local projections:   4
             semicore corrections included  :  1.730 (radius)  0.712 (charge)
             cutoff =   2.592   2.592   2.592
      2: O     core charge: 6.0  lmax=2
             comment    : Parameterized (Chem.Phys.Lett., vol 322, page 447) Hamman psp
             pseudpotential type            :   0
             highest angular component      :   2
             local potential used           :   2
             number of non-local projections:   4
             cutoff =   0.700   0.700   0.700
      3: H     core charge: 1.0  lmax=1
             comment    : Parameterized (Chem.Phys.Lett., vol 322, page 447) Hamman psp
             pseudpotential type            :   0
             highest angular component      :   1
             local potential used           :   1
             number of non-local projections:   1
             cutoff =   0.800   0.800

 total charge:   0.000

 atomic composition:
     Mg  :  1     O   :  2     H   :  2

 number of electrons: spin up=    8.00  spin down=    8.00 (fourier space)
 number of orbitals:  spin up=       8  spin down=       8 (fourier space)

 supercell:
      lattice:    a1=<   5.148  -2.972   0.000 >
                  a2=<   0.000   5.945   0.000 >
                  a3=<   0.000   0.000   9.017 >
      reciprocal: b1=<   1.220   0.000  -0.000 >
                  b2=<   0.610   1.057  -0.000 >
                  b3=<  -0.000   0.000   0.697 >

      lattice:    a=   5.945    b=   5.945     c=   9.017
              alpha=  90.000 beta=  90.000 gamma= 120.000
      volume :      276.0
      ewald summation: cut radius=    3.00  and  8
                        madelung= 1.61633504

 brillouin zone:
      number of zone points:     2
      weight=   0.500  ks=<   0.250   0.250  -0.000 >, k=<   0.458   0.264  -0.000>
      weight=   0.500  ks=<   0.250  -0.250   0.000 >, k=<   0.153  -0.264   0.000>

 computational grids:
      density     cutoff=100.000  fft=  24x  24x  42(    12515 waves    12515 per task)
      wavefnc   1 cutoff= 50.000  fft=  24x  24x  42(     4677 waves     4677 per task)
      wavefnc   2 cutoff= 50.000  fft=  24x  24x  42(     4694 waves     4694 per task)

 technical parameters:
      time step=      5.80     ficticious mass=  400000.0
      tolerance=.100E-06 (energy)   0.100E-06 (density)
      maximum iterations =      1000 (   10 inner    100 outer )



= energy calculation =


          ======== bundled Grassmann lmbfgs iteration ========
     >>>  ITERATION STARTED AT Tue Jan 31 19:07:41 2012  <<<
    iter.           Energy         DeltaE       DeltaRho 
    ------------------------------------------------------
      10   -0.3440625736E+02   -0.38093E-07    0.14900E-10
  *** tolerance ok.    iteration terminated.
     >>>  ITERATION ENDED   AT Tue Jan 31 19:07:42 2012  <<<


          =============  summary of results  =================

 number of electrons: spin up=    8.00000  down=    8.00000 (real space)

 total     energy    :  -0.3440625736E+02 (   -0.68813E+01/ion)
 total orbital energy:  -0.2586217211E+01 (   -0.32328E+00/electron)
 hartree   energy    :   0.1154217564E+02 (    0.14428E+01/electron)
 exc-corr  energy    :  -0.8567243083E+01 (   -0.10709E+01/electron)
 ion-ion   energy    :  -0.2256328684E+02 (   -0.45127E+01/ion)

 K.S. kinetic energy :   0.2404381247E+02 (    0.30055E+01/electron)
 K.S. V_l  energy    :  -0.3696513180E+02 (   -0.46206E+01/electron)
 K.S. V_nl energy    :  -0.1896583740E+01 (   -0.23707E+00/electron)
 K.S. V_Hart energy  :   0.2308435128E+02 (    0.28855E+01/electron)
 K.S. V_xc energy    :  -0.1085266542E+02 (   -0.13566E+01/electron)
 K.S. V_so energy    :   0.0000000000E+00 (    0.00000E+00/electron)
 Virial Coefficient  :  -0.1107562693E+01

 Brillouin zone point:      1
    weight=  0.500000
    k     =<   0.250   0.250  -0.000> . <b1,b2,b3> 
          =<   0.458   0.264  -0.000>

 orbital energies:
     0.4279546E-01 (   1.165eV) occ=1.000
     0.1590518E-01 (   0.433eV) occ=1.000
    -0.5461329E-02 (  -0.149eV) occ=1.000
    -0.2719543E-01 (  -0.740eV) occ=1.000
    -0.9128666E-01 (  -2.484eV) occ=1.000
    -0.1324808E+00 (  -3.605eV) occ=1.000
    -0.5596842E+00 ( -15.230eV) occ=1.000
    -0.5730233E+00 ( -15.593eV) occ=1.000

 Brillouin zone point:      2
    weight=  0.500000
    k     =<   0.250  -0.250   0.000> . <b1,b2,b3> 
          =<   0.153  -0.264   0.000>

 orbital energies:
     0.6591360E-01 (   1.794eV) occ=1.000
     0.3480039E-01 (   0.947eV) occ=1.000
     0.2173692E-01 (   0.591eV) occ=1.000
    -0.1249157E-02 (  -0.034eV) occ=1.000
    -0.6799565E-01 (  -1.850eV) occ=1.000
    -0.1630761E+00 (  -4.438eV) occ=1.000
    -0.5574616E+00 ( -15.169eV) occ=1.000
    -0.5884545E+00 ( -16.013eV) occ=1.000

 Total BAND energy   :  -0.3440625736E+02


=== Spin Contamination ===

 <Sexact^2> =    0.0000000000000000     
 <S^2>      =    0.0000000000000000     



========================
= Gradient calculation =
========================


Translation force removed: (    0.00000   -0.00000    0.00000)


          =============  Ion Gradients =================
 Ion Forces:
        1 Mg   (   -0.00000    0.00000   -0.00000 )
        2 O    (    0.00069   -0.00120    0.00430 )
        3 O    (   -0.00069    0.00119   -0.00430 )
        4 H    (    0.00016   -0.00028   -0.00180 )
        5 H    (   -0.00016    0.00028    0.00181 )
        C.O.M. (   -0.00000   -0.00000    0.00000 )
          ===============================================
          |F|       =   0.689635E-02
          |F|/nion  =   0.137927E-02
          max|Fatom|=   0.451884E-02 (   0.232eV/Angstrom)


 pseudopotential is not correctly formatted:Mg.cpp2                                           

 pseudopotential is not correctly formatted-bad brillioun zone:Mg.cpp2                                           

 Generated formatted_stress_filename: ./perm/Mg.cpp2
 - Spline fitted, nray= 4490 -
 - filtered -
 pseudopotential is not correctly formatted:O.cpp2                                            

 pseudopotential is not correctly formatted-bad brillioun zone:O.cpp2                                            

 Generated formatted_stress_filename: ./perm/O.cpp2
 - Spline fitted, nray= 4490 -
 - filtered -
 pseudopotential is not correctly formatted:H.cpp2                                            

 pseudopotential is not correctly formatted-bad brillioun zone:H.cpp2                                            

 Generated formatted_stress_filename: ./perm/H.cpp2
 - Spline fitted, nray= 4490 -
 - filtered -


======================
= Stress calculation =
======================


          ============= total gradient ==============
      S =  (    0.01103    0.00011   -0.00006 )
           (   -0.00624    0.01267    0.00010 )
           (   -0.00010    0.00010    0.00753 )
          ===================================================
          |S|      = 0.19433E-01
          pressure = 0.104E-01 au
                   = 0.306E+01 Mbar
                   = 0.306E+03 GPa
                   = 0.302E+07 atm


       dE/da     =     0.01267
       dE/db     =     0.01267
       dE/dc     =     0.00753
       dE/dalpha =    -0.00061
       dE/dbeta  =     0.00061
       dE/dgamma =    -0.00067


 Writing Crystallographic Information File:./perm/brucite.cif
   - cell not shifted (nwpw:cif_shift_cell .false.)

 output psi filename:./perm/brucite.movecs


== Timing ==

cputime in seconds
  prologue    :   0.268646E+00
  main loop   :   0.127823E+02
  epilogue    :   0.826600E-01
  total       :   0.131337E+02
  cputime/step:   0.255647E+01       (       5 evalulations,       1 linesearches)


Time spent doing                        total          step
  FFTs                       :   0.100544E+00  0.201088E-01
  dot products               :   0.894380E-01  0.178876E-01
  geodesic                   :   0.319200E-01  0.638400E-02
  ffm_dgemm                  :   0.000000E+00  0.000000E+00
  fmf_dgemm                  :   0.000000E+00  0.000000E+00
  m_diagonalize              :   0.000000E+00  0.000000E+00
    - m_tredq                :   0.000000E+00  0.000000E+00
       - m_tredq_houseq      :   0.000000E+00  0.000000E+00
       - m_tredq_houseq_dgemm:   0.000000E+00  0.000000E+00
       - m_tredq_dgemm1      :   0.000000E+00  0.000000E+00
    - m_getdiags             :   0.000000E+00  0.000000E+00
    - m_tqliq                :   0.000000E+00  0.000000E+00
    - m_eigsrt               :   0.000000E+00  0.000000E+00
  exchange correlation       :   0.121098E+00  0.242196E-01
  local pseudopotentials     :   0.775000E-02  0.155000E-02
  non-local pseudopotentials :   0.927120E-01  0.185424E-01
  hartree potentials         :   0.152800E-02  0.305600E-03
  ion-ion interaction        :   0.168074E+00  0.336148E-01
  structure factors          :   0.938000E-02  0.187600E-02
  phase factors              :   0.000000E+00  0.000000E+00
  masking and packing        :   0.605700E-01  0.121140E-01
  queue fft                  :   0.257580E+00  0.515160E-01
  queue fft (serial)         :   0.152316E+00  0.304632E-01
  queue fft (message passing):   0.958300E-01  0.191660E-01
  HFX potential              :   0.000000E+00  0.000000E+00
  qmmm LJ                    :   0.000000E+00  0.000000E+00
  qmmm residual Q            :   0.000000E+00  0.000000E+00

     >>>  JOB COMPLETED     AT Tue Jan 31 19:07:54 2012  <<<

  Step       Energy      Delta E   Gmax     Grms     Xrms     Xmax   Walltime
  ---- ---------------- -------- -------- -------- -------- -------- --------
@    1     -34.40625736 -1.8D-03  0.03880  0.01403  0.00291  0.00768     84.5
                                                                    

          **********************************************************
          *                                                        *
          *                   NWPW BAND Calculation                *
          *                                                        *
          *  [(bundled Grassman/Stiefel manifold implementation)]  *
          *                                                        *
          *         [ NorthWest Chemistry implementation ]         *
          *                                                        *
          *                version #1.10   01/31/03                *
          *                                                        *
          *  A pseudopotential plane-wave band structure program   *
          *  with Brillouin zone sampling for optimizing crystals, *
          *  slabs, and polymers.  Developed by Eric J. Bylaska    *
          *  , Edoardo Apra, and Patrick Nichols.                  *
          *                                                        *
          **********************************************************
     >>>  JOB STARTED       AT Tue Jan 31 19:07:54 2012  <<<
          ================ input data ========================
 Brillioun Zone Vectors do not match!

 pseudopotential is not correctly formatted:Mg.cpp                                            

 pseudopotential is not correctly formatted---bad brillioun zone:Mg.cpp                                            

 Generated formatted_filename: ./perm/Mg.cpp
 - Spline fitted, nray= 4492 -
 - filtered -
 Brillioun Zone Vectors do not match!

 pseudopotential is not correctly formatted:O.cpp                                             

 pseudopotential is not correctly formatted---bad brillioun zone:O.cpp                                             

 Generated formatted_filename: ./perm/O.cpp
 - Spline fitted, nray= 4492 -
 - filtered -
 Brillioun Zone Vectors do not match!

 pseudopotential is not correctly formatted:H.cpp                                             

 pseudopotential is not correctly formatted---bad brillioun zone:H.cpp                                             

 Generated formatted_filename: ./perm/H.cpp
 - Spline fitted, nray= 4492 -
 - filtered -
 Error reading psi - bad unitcell
  - Ignored if the following  parameter is set
  - set nwpw:psi_nolattice .true.
 Error reading psi - bad unitcell
  - Ignored if the following  parameter is set
  - set nwpw:psi_nolattice .true.
 Error reading psi - bad unitcell
  - Ignored if the following  parameter is set
  - set nwpw:psi_nolattice .true.

 input psi filename:./perm/brucite.movecs

 number of processors used:               1
 processor grid           :   1 x   1 x   1
 parallel mapping         :     2d  hilbert

 options:
      boundary conditions  = periodic    (version3)
      electron spin        = restricted
      exchange-correlation = PBE96 (White and Bird) parameterization

 elements involved in the cluster:
      1: Mg    core charge: 2.0  lmax=2
             comment    : Troullier-Martins pseudopotential
             pseudpotential type            :   0
             highest angular component      :   2
             local potential used           :   2
             number of non-local projections:   4
             semicore corrections included  :  1.730 (radius)  0.712 (charge)
             cutoff =   2.592   2.592   2.592
      2: O     core charge: 6.0  lmax=2
             comment    : Parameterized (Chem.Phys.Lett., vol 322, page 447) Hamman psp
             pseudpotential type            :   0
             highest angular component      :   2
             local potential used           :   2
             number of non-local projections:   4
             cutoff =   0.700   0.700   0.700
      3: H     core charge: 1.0  lmax=1
             comment    : Parameterized (Chem.Phys.Lett., vol 322, page 447) Hamman psp
             pseudpotential type            :   0
             highest angular component      :   1
             local potential used           :   1
             number of non-local projections:   1
             cutoff =   0.800   0.800

 total charge:   0.000

 atomic composition:
     Mg  :  1     O   :  2     H   :  2

 number of electrons: spin up=    8.00  spin down=    8.00 (fourier space)
 number of orbitals:  spin up=       8  spin down=       8 (fourier space)

 supercell:
      lattice:    a1=<   5.142  -2.968   0.000 >
                  a2=<   0.000   5.937   0.000 >
                  a3=<   0.000   0.000   9.011 >
      reciprocal: b1=<   1.222   0.000  -0.000 >
                  b2=<   0.611   1.058  -0.000 >
                  b3=<  -0.000   0.000   0.697 >

      lattice:    a=   5.937    b=   5.937     c=   9.011
              alpha=  90.000 beta=  90.000 gamma= 120.000
      volume :      275.1
      ewald summation: cut radius=    3.00  and  8
                        madelung= 1.61591235

 brillouin zone:
      number of zone points:     2
      weight=   0.500  ks=<   0.250   0.250  -0.000 >, k=<   0.458   0.265  -0.000>
      weight=   0.500  ks=<   0.250  -0.250   0.000 >, k=<   0.153  -0.265   0.000>

 computational grids:
      density     cutoff=100.000  fft=  24x  24x  42(    12515 waves    12515 per task)
      wavefnc   1 cutoff= 50.000  fft=  24x  24x  42(     4677 waves     4677 per task)
      wavefnc   2 cutoff= 50.000  fft=  24x  24x  42(     4694 waves     4694 per task)

 technical parameters:
      time step=      5.80     ficticious mass=  400000.0
      tolerance=.100E-06 (energy)   0.100E-06 (density)
      maximum iterations =      1000 (   10 inner    100 outer )



= energy calculation =


          ======== bundled Grassmann lmbfgs iteration ========
     >>>  ITERATION STARTED AT Tue Jan 31 19:08:06 2012  <<<
    iter.           Energy         DeltaE       DeltaRho 
    ------------------------------------------------------
      10   -0.3440651537E+02   -0.11107E-05    0.16617E-03
      20   -0.3440651729E+02   -0.70152E-07    0.67178E-07
  *** tolerance ok.    iteration terminated.
     >>>  ITERATION ENDED   AT Tue Jan 31 19:08:10 2012  <<<


          =============  summary of results  =================

 number of electrons: spin up=    8.00000  down=    8.00000 (real space)

 total     energy    :  -0.3440651729E+02 (   -0.68813E+01/ion)
 total orbital energy:  -0.2579213163E+01 (   -0.32240E+00/electron)
 hartree   energy    :   0.1152671447E+02 (    0.14408E+01/electron)
 exc-corr  energy    :  -0.8570986344E+01 (   -0.10714E+01/electron)
 ion-ion   energy    :  -0.2258711789E+02 (   -0.45174E+01/ion)

 K.S. kinetic energy :   0.2405901414E+02 (    0.30074E+01/electron)
 K.S. V_l  energy    :  -0.3693258079E+02 (   -0.46166E+01/electron)
 K.S. V_nl energy    :  -0.1901560875E+01 (   -0.23770E+00/electron)
 K.S. V_Hart energy  :   0.2305342894E+02 (    0.28817E+01/electron)
 K.S. V_xc energy    :  -0.1085751458E+02 (   -0.13572E+01/electron)
 K.S. V_so energy    :   0.0000000000E+00 (    0.00000E+00/electron)
 Virial Coefficient  :  -0.1107203610E+01

 Brillouin zone point:      1
    weight=  0.500000
    k     =<   0.250   0.250  -0.000> . <b1,b2,b3> 
          =<   0.458   0.265  -0.000>

 orbital energies:
     0.4347525E-01 (   1.183eV) occ=1.000
     0.1657552E-01 (   0.451eV) occ=1.000
    -0.4929779E-02 (  -0.134eV) occ=1.000
    -0.2657469E-01 (  -0.723eV) occ=1.000
    -0.9097516E-01 (  -2.476eV) occ=1.000
    -0.1322185E+00 (  -3.598eV) occ=1.000
    -0.5595264E+00 ( -15.226eV) occ=1.000
    -0.5729200E+00 ( -15.590eV) occ=1.000

 Brillouin zone point:      2
    weight=  0.500000
    k     =<   0.250  -0.250   0.000> . <b1,b2,b3> 
          =<   0.153  -0.265   0.000>

 orbital energies:
     0.6673991E-01 (   1.816eV) occ=1.000
     0.3569325E-01 (   0.971eV) occ=1.000
     0.2240422E-01 (   0.610eV) occ=1.000
    -0.5800683E-03 (  -0.016eV) occ=1.000
    -0.6772345E-01 (  -1.843eV) occ=1.000
    -0.1629065E+00 (  -4.433eV) occ=1.000
    -0.5573166E+00 ( -15.165eV) occ=1.000
    -0.5884301E+00 ( -16.012eV) occ=1.000

 Total BAND energy   :  -0.3440651729E+02


=== Spin Contamination ===

 <Sexact^2> =    0.0000000000000000     
 <S^2>      =    0.0000000000000000     


 Writing Crystallographic Information File:./perm/brucite.cif
   - cell not shifted (nwpw:cif_shift_cell .false.)

 output psi filename:./perm/brucite.movecs


== Timing ==

cputime in seconds
  prologue    :   0.119146E+02
  main loop   :   0.429507E+01
  epilogue    :   0.379000E-01
  total       :   0.162476E+02
  cputime/step:   0.113028E+00       (      38 evalulations,      17 linesearches)


Time spent doing                        total          step
  FFTs                       :   0.467586E+00  0.123049E-01
  dot products               :   0.771742E+00  0.203090E-01
  geodesic                   :   0.584530E+00  0.153824E-01
  ffm_dgemm                  :   0.000000E+00  0.000000E+00
  fmf_dgemm                  :   0.000000E+00  0.000000E+00
  m_diagonalize              :   0.000000E+00  0.000000E+00
    - m_tredq                :   0.000000E+00  0.000000E+00
       - m_tredq_houseq      :   0.000000E+00  0.000000E+00
       - m_tredq_houseq_dgemm:   0.000000E+00  0.000000E+00
       - m_tredq_dgemm1      :   0.000000E+00  0.000000E+00
    - m_getdiags             :   0.000000E+00  0.000000E+00
    - m_tqliq                :   0.000000E+00  0.000000E+00
    - m_eigsrt               :   0.000000E+00  0.000000E+00
  exchange correlation       :   0.769126E+00  0.202402E-01
  local pseudopotentials     :   0.928000E-03  0.244211E-04
  non-local pseudopotentials :   0.280490E+00  0.738132E-02
  hartree potentials         :   0.100440E-01  0.264316E-03
  ion-ion interaction        :   0.208840E-01  0.549579E-03
  structure factors          :   0.192920E-01  0.507684E-03
  phase factors              :   0.000000E+00  0.000000E+00
  masking and packing        :   0.233980E+00  0.615737E-02
  queue fft                  :   0.200367E+01  0.527281E-01
  queue fft (serial)         :   0.120200E+01  0.316317E-01
  queue fft (message passing):   0.729554E+00  0.191988E-01
  HFX potential              :   0.000000E+00  0.000000E+00
  qmmm LJ                    :   0.000000E+00  0.000000E+00
  qmmm residual Q            :   0.000000E+00  0.000000E+00

     >>>  JOB COMPLETED     AT Tue Jan 31 19:08:10 2012  <<<
 Line search: 
     step= 1.00 grad=-2.8D-04 hess= 1.6D-05 energy=    -34.406517 mode=restrict
 new step= 4.00                   predicted energy=    -34.407108

          --------
          Step   2
          --------


                         Geometry "geometry" -> "geometry"
                         ---------------------------------

 Output coordinates in angstroms (scale by  1.889725989 to convert to a.u.)

  No.       Tag          Charge          X              Y              Z
 ---- ---------------- ---------- -------------- -------------- --------------
    1 Mg                  12.0000     0.00000000     0.00000000     0.00000000
    2 O                    8.0000     0.90346071     1.56483985     1.04603826
    3 O                    8.0000     1.80692142     0.00000000     3.71262963
    4 H                    1.0000     0.90346071     1.56483985     1.98784232
    5 H                    1.0000     1.80692142     0.00000000     2.77082557

      Lattice Parameters 
      ------------------ 

      lattice vectors in angstroms (scale by  1.889725989 to convert to a.u.)

      a1=<   2.710  -1.565   0.000 >
      a2=<   0.000   3.130   0.000 >
      a3=<   0.000   0.000   4.759 >
      a=       3.130 b=      3.130 c=       4.759
      alpha=  90.000 beta=  90.000 gamma= 120.000
      omega=    40.4

      reciprocal lattice vectors in a.u.

      b1=<   1.227   0.000  -0.000 >
      b2=<   0.613   1.062  -0.000 >
      b3=<  -0.000   0.000   0.699 >

      Atomic Mass 
      ----------- 

      Mg                23.985040
      O                 15.994910
      H                  1.007825


      Symmetry information
      --------------------

 Group name                  P-3m1
 Group number            164
 Group order              12
 No. of unique centers     3
 Setting number            1

      Symmetry unique atoms

     1    2    4

          **********************************************************
          *                                                        *
          *                   NWPW BAND Calculation                *
          *                                                        *
          *  [(bundled Grassman/Stiefel manifold implementation)]  *
          *                                                        *
          *         [ NorthWest Chemistry implementation ]         *
          *                                                        *
          *                version #1.10   01/31/03                *
          *                                                        *
          *  A pseudopotential plane-wave band structure program   *
          *  with Brillouin zone sampling for optimizing crystals, *
          *  slabs, and polymers.  Developed by Eric J. Bylaska    *
          *  , Edoardo Apra, and Patrick Nichols.                  *
          *                                                        *
          **********************************************************
     >>>  JOB STARTED       AT Tue Jan 31 19:08:10 2012  <<<
          ================ input data ========================
 Brillioun Zone Vectors do not match!

 pseudopotential is not correctly formatted:Mg.cpp                                            

 pseudopotential is not correctly formatted---bad brillioun zone:Mg.cpp                                            

 Generated formatted_filename: ./perm/Mg.cpp
 - Spline fitted, nray= 4497 -
 - filtered -
 Brillioun Zone Vectors do not match!

 pseudopotential is not correctly formatted:O.cpp                                             

 pseudopotential is not correctly formatted---bad brillioun zone:O.cpp                                             

 Generated formatted_filename: ./perm/O.cpp
 - Spline fitted, nray= 4497 -
 - filtered -
 Brillioun Zone Vectors do not match!

 pseudopotential is not correctly formatted:H.cpp                                             

 pseudopotential is not correctly formatted---bad brillioun zone:H.cpp                                             

 Generated formatted_filename: ./perm/H.cpp
 - Spline fitted, nray= 4497 -
 - filtered -
 Error reading psi - bad unitcell
  - Ignored if the following  parameter is set
  - set nwpw:psi_nolattice .true.
 Error reading psi - bad unitcell
  - Ignored if the following  parameter is set
  - set nwpw:psi_nolattice .true.
 Error reading psi - bad unitcell
  - Ignored if the following  parameter is set
  - set nwpw:psi_nolattice .true.

 input psi filename:./perm/brucite.movecs
Warning - Orthogonalization performed, spin,zone: 1   1
        - error(before)=  0.818661E-05 (  0.799999E+01)
        - error(after)=   0.115463E-13 (  0.800000E+01)
Warning - Orthogonalization performed, spin,zone: 1   2
        - error(before)=  0.114163E-04 (  0.799999E+01)
        - error(after)=   0.106581E-13 (  0.800000E+01)

 number of processors used:               1
 processor grid           :   1 x   1 x   1
 parallel mapping         :     2d  hilbert

 options:
      boundary conditions  = periodic    (version3)
      electron spin        = restricted
      exchange-correlation = PBE96 (White and Bird) parameterization

 elements involved in the cluster:
      1: Mg    core charge: 2.0  lmax=2
             comment    : Troullier-Martins pseudopotential
             pseudpotential type            :   0
             highest angular component      :   2
             local potential used           :   2
             number of non-local projections:   4
             semicore corrections included  :  1.730 (radius)  0.712 (charge)
             cutoff =   2.592   2.592   2.592
      2: O     core charge: 6.0  lmax=2
             comment    : Parameterized (Chem.Phys.Lett., vol 322, page 447) Hamman psp
             pseudpotential type            :   0
             highest angular component      :   2
             local potential used           :   2
             number of non-local projections:   4
             cutoff =   0.700   0.700   0.700
      3: H     core charge: 1.0  lmax=1
             comment    : Parameterized (Chem.Phys.Lett., vol 322, page 447) Hamman psp
             pseudpotential type            :   0
             highest angular component      :   1
             local potential used           :   1
             number of non-local projections:   1
             cutoff =   0.800   0.800

 total charge:   0.000

 atomic composition:
     Mg  :  1     O   :  2     H   :  2

 number of electrons: spin up=    8.00  spin down=    8.00 (fourier space)
 number of orbitals:  spin up=       8  spin down=       8 (fourier space)

 supercell:
      lattice:    a1=<   5.122  -2.957   0.000 >
                  a2=<   0.000   5.914   0.000 >
                  a3=<   0.000   0.000   8.993 >
      reciprocal: b1=<   1.227   0.000  -0.000 >
                  b2=<   0.613   1.062  -0.000 >
                  b3=<  -0.000   0.000   0.699 >

      lattice:    a=   5.914    b=   5.914     c=   8.993
              alpha=  90.000 beta=  90.000 gamma= 120.000
      volume :      272.4
      ewald summation: cut radius=    3.00  and  8
                        madelung= 1.61463519

 brillouin zone:
      number of zone points:     2
      weight=   0.500  ks=<   0.250   0.250  -0.000 >, k=<   0.460   0.266  -0.000>
      weight=   0.500  ks=<   0.250  -0.250   0.000 >, k=<   0.153  -0.266   0.000>

 computational grids:
      density     cutoff=100.000  fft=  24x  24x  42(    12379 waves    12379 per task)
      wavefnc   1 cutoff= 50.000  fft=  24x  24x  42(     4607 waves     4607 per task)
      wavefnc   2 cutoff= 50.000  fft=  24x  24x  42(     4604 waves     4604 per task)

 technical parameters:
      time step=      5.80     ficticious mass=  400000.0
      tolerance=.100E-06 (energy)   0.100E-06 (density)
      maximum iterations =      1000 (   10 inner    100 outer )



= energy calculation =


          ======== bundled Grassmann lmbfgs iteration ========
     >>>  ITERATION STARTED AT Tue Jan 31 19:08:22 2012  <<<
    iter.           Energy         DeltaE       DeltaRho 
    ------------------------------------------------------
      10   -0.3440614115E+02   -0.99403E-05    0.15066E-02
      20   -0.3440615956E+02   -0.22701E-06    0.68535E-06
      30   -0.3440615989E+02   -0.69368E-07    0.38653E-08
  *** tolerance ok.    iteration terminated.
     >>>  ITERATION ENDED   AT Tue Jan 31 19:08:28 2012  <<<


          =============  summary of results  =================

 number of electrons: spin up=    8.00000  down=    8.00000 (real space)

 total     energy    :  -0.3440615989E+02 (   -0.68812E+01/ion)
 total orbital energy:  -0.2557375736E+01 (   -0.31967E+00/electron)
 hartree   energy    :   0.1148062797E+02 (    0.14351E+01/electron)
 exc-corr  energy    :  -0.8582119360E+01 (   -0.10728E+01/electron)
 ion-ion   energy    :  -0.2265799505E+02 (   -0.45316E+01/ion)

 K.S. kinetic energy :   0.2410265050E+02 (    0.30128E+01/electron)
 K.S. V_l  energy    :  -0.3683405401E+02 (   -0.46043E+01/electron)
 K.S. V_nl energy    :  -0.1915269944E+01 (   -0.23941E+00/electron)
 K.S. V_Hart energy  :   0.2296125595E+02 (    0.28702E+01/electron)
 K.S. V_xc energy    :  -0.1087195823E+02 (   -0.13590E+01/electron)
 K.S. V_so energy    :   0.0000000000E+00 (    0.00000E+00/electron)
 Virial Coefficient  :  -0.1106103507E+01

 Brillouin zone point:      1
    weight=  0.500000
    k     =<   0.250   0.250  -0.000> . <b1,b2,b3> 
          =<   0.460   0.266  -0.000>

 orbital energies:
     0.4565499E-01 (   1.242eV) occ=1.000
     0.1868365E-01 (   0.508eV) occ=1.000
    -0.3286883E-02 (  -0.089eV) occ=1.000
    -0.2464667E-01 (  -0.671eV) occ=1.000
    -0.9001288E-01 (  -2.449eV) occ=1.000
    -0.1314173E+00 (  -3.576eV) occ=1.000
    -0.5590795E+00 ( -15.213eV) occ=1.000
    -0.5726415E+00 ( -15.582eV) occ=1.000

 Brillouin zone point:      2
    weight=  0.500000
    k     =<   0.250  -0.250   0.000> . <b1,b2,b3> 
          =<   0.153  -0.266   0.000>

 orbital energies:
     0.6935114E-01 (   1.887eV) occ=1.000
     0.3850312E-01 (   1.048eV) occ=1.000
     0.2450903E-01 (   0.667eV) occ=1.000
     0.1509993E-02 (   0.041eV) occ=1.000
    -0.6685667E-01 (  -1.819eV) occ=1.000
    -0.1623538E+00 (  -4.418eV) occ=1.000
    -0.5569022E+00 ( -15.154eV) occ=1.000
    -0.5883902E+00 ( -16.011eV) occ=1.000

 Total BAND energy   :  -0.3440615989E+02


=== Spin Contamination ===

 <Sexact^2> =    0.0000000000000000     
 <S^2>      =    0.0000000000000000     



========================
= Gradient calculation =
========================


Translation force removed: (    0.00000   -0.00000    0.00000)


          =============  Ion Gradients =================
 Ion Forces:
        1 Mg   (   -0.00000    0.00000   -0.00000 )
        2 O    (    0.00070   -0.00121   -0.00580 )
        3 O    (   -0.00070    0.00121    0.00580 )
        4 H    (    0.00017   -0.00030    0.00749 )
        5 H    (   -0.00017    0.00030   -0.00749 )
        C.O.M. (    0.00000    0.00000   -0.00000 )
          ===============================================
          |F|       =   0.135493E-01
          |F|/nion  =   0.270987E-02
          max|Fatom|=   0.749459E-02 (   0.385eV/Angstrom)


 pseudopotential is not correctly formatted:Mg.cpp2                                           

 pseudopotential is not correctly formatted-bad brillioun zone:Mg.cpp2                                           

 Generated formatted_stress_filename: ./perm/Mg.cpp2
 - Spline fitted, nray= 4497 -
 - filtered -
 pseudopotential is not correctly formatted:O.cpp2                                            

 pseudopotential is not correctly formatted-bad brillioun zone:O.cpp2                                            

 Generated formatted_stress_filename: ./perm/O.cpp2
 - Spline fitted, nray= 4497 -
 - filtered -
 pseudopotential is not correctly formatted:H.cpp2                                            

 pseudopotential is not correctly formatted-bad brillioun zone:H.cpp2                                            

 Generated formatted_stress_filename: ./perm/H.cpp2
 - Spline fitted, nray= 4497 -
 - filtered -


======================
= Stress calculation =
======================


          ============= total gradient ==============
      S =  (    0.00966   -0.00073   -0.00007 )
           (   -0.00642    0.01158    0.00012 )
           (   -0.00012    0.00012    0.00394 )
          ===================================================
          |S|      = 0.16878E-01
          pressure = 0.840E-02 au
                   = 0.247E+01 Mbar
                   = 0.247E+03 GPa
                   = 0.244E+07 atm


       dE/da     =     0.01158
       dE/db     =     0.01158
       dE/dc     =     0.00394
       dE/dalpha =    -0.00072
       dE/dbeta  =     0.00072
       dE/dgamma =     0.00432


 Writing Crystallographic Information File:./perm/brucite.cif
   - cell not shifted (nwpw:cif_shift_cell .false.)

 output psi filename:./perm/brucite.movecs


== Timing ==

cputime in seconds
  prologue    :   0.119350E+02
  main loop   :   0.181918E+02
  epilogue    :   0.674760E-01
  total       :   0.301942E+02
  cputime/step:   0.343241E+00       (      53 evalulations,      23 linesearches)


Time spent doing                        total          step
  FFTs                       :   0.692358E+00  0.130634E-01
  dot products               :   0.110610E+01  0.208698E-01
  geodesic                   :   0.801392E+00  0.151206E-01
  ffm_dgemm                  :   0.000000E+00  0.000000E+00
  fmf_dgemm                  :   0.000000E+00  0.000000E+00
  m_diagonalize              :   0.000000E+00  0.000000E+00
    - m_tredq                :   0.000000E+00  0.000000E+00
       - m_tredq_houseq      :   0.000000E+00  0.000000E+00
       - m_tredq_houseq_dgemm:   0.000000E+00  0.000000E+00
       - m_tredq_dgemm1      :   0.000000E+00  0.000000E+00
    - m_getdiags             :   0.000000E+00  0.000000E+00
    - m_tqliq                :   0.000000E+00  0.000000E+00
    - m_eigsrt               :   0.000000E+00  0.000000E+00
  exchange correlation       :   0.109304E+01  0.206234E-01
  local pseudopotentials     :   0.769800E-02  0.145245E-03
  non-local pseudopotentials :   0.441122E+00  0.832306E-02
  hartree potentials         :   0.132560E-01  0.250113E-03
  ion-ion interaction        :   0.187614E+00  0.353989E-02
  structure factors          :   0.309980E-01  0.584868E-03
  phase factors              :   0.000000E+00  0.000000E+00
  masking and packing        :   0.343386E+00  0.647898E-02
  queue fft                  :   0.276724E+01  0.522121E-01
  queue fft (serial)         :   0.163774E+01  0.309008E-01
  queue fft (message passing):   0.102477E+01  0.193353E-01
  HFX potential              :   0.000000E+00  0.000000E+00
  qmmm LJ                    :   0.000000E+00  0.000000E+00
  qmmm residual Q            :   0.000000E+00  0.000000E+00

     >>>  JOB COMPLETED     AT Tue Jan 31 19:08:40 2012  <<<

  Step       Energy      Delta E   Gmax     Grms     Xrms     Xmax   Walltime
  ---- ---------------- -------- -------- -------- -------- -------- --------
@    2     -34.40615989  9.7D-05  0.06732  0.02674  0.01079  0.03033    131.0
                                                                    

 Restricting overall step due to uphill motion.   alpha=  0.50
          **********************************************************
          *                                                        *
          *                   NWPW BAND Calculation                *
          *                                                        *
          *  [(bundled Grassman/Stiefel manifold implementation)]  *
          *                                                        *
          *         [ NorthWest Chemistry implementation ]         *
          *                                                        *
          *                version #1.10   01/31/03                *
          *                                                        *
          *  A pseudopotential plane-wave band structure program   *
          *  with Brillouin zone sampling for optimizing crystals, *
          *  slabs, and polymers.  Developed by Eric J. Bylaska    *
          *  , Edoardo Apra, and Patrick Nichols.                  *
          *                                                        *
          **********************************************************
     >>>  JOB STARTED       AT Tue Jan 31 19:08:40 2012  <<<
          ================ input data ========================
 Brillioun Zone Vectors do not match!

 pseudopotential is not correctly formatted:Mg.cpp                                            

 pseudopotential is not correctly formatted---bad brillioun zone:Mg.cpp                                            

 Generated formatted_filename: ./perm/Mg.cpp
 - Spline fitted, nray= 4498 -
 - filtered -
 Brillioun Zone Vectors do not match!

 pseudopotential is not correctly formatted:O.cpp                                             

 pseudopotential is not correctly formatted---bad brillioun zone:O.cpp                                             

 Generated formatted_filename: ./perm/O.cpp
 - Spline fitted, nray= 4498 -
 - filtered -
 Brillioun Zone Vectors do not match!

 pseudopotential is not correctly formatted:H.cpp                                             

 pseudopotential is not correctly formatted---bad brillioun zone:H.cpp                                             

 Generated formatted_filename: ./perm/H.cpp
 - Spline fitted, nray= 4498 -
 - filtered -
 Error reading psi - bad unitcell
  - Ignored if the following  parameter is set
  - set nwpw:psi_nolattice .true.
 Error reading psi - bad unitcell
  - Ignored if the following  parameter is set
  - set nwpw:psi_nolattice .true.
 Error reading psi - bad unitcell
  - Ignored if the following  parameter is set
  - set nwpw:psi_nolattice .true.

 input psi filename:./perm/brucite.movecs

 number of processors used:               1
 processor grid           :   1 x   1 x   1
 parallel mapping         :     2d  hilbert

 options:
      boundary conditions  = periodic    (version3)
      electron spin        = restricted
      exchange-correlation = PBE96 (White and Bird) parameterization

 elements involved in the cluster:
      1: Mg    core charge: 2.0  lmax=2
             comment    : Troullier-Martins pseudopotential
             pseudpotential type            :   0
             highest angular component      :   2
             local potential used           :   2
             number of non-local projections:   4
             semicore corrections included  :  1.730 (radius)  0.712 (charge)
             cutoff =   2.592   2.592   2.592
      2: O     core charge: 6.0  lmax=2
             comment    : Parameterized (Chem.Phys.Lett., vol 322, page 447) Hamman psp
             pseudpotential type            :   0
             highest angular component      :   2
             local potential used           :   2
             number of non-local projections:   4
             cutoff =   0.700   0.700   0.700
      3: H     core charge: 1.0  lmax=1
             comment    : Parameterized (Chem.Phys.Lett., vol 322, page 447) Hamman psp
             pseudpotential type            :   0
             highest angular component      :   1
             local potential used           :   1
[...]
 No. of unique centers     3
 Setting number            1

      Symmetry unique atoms

     1    2    4

          **********************************************************
          *                                                        *
          *                   NWPW BAND Calculation                *
          *                                                        *
          *  [(bundled Grassman/Stiefel manifold implementation)]  *
          *                                                        *
          *         [ NorthWest Chemistry implementation ]         *
          *                                                        *
          *                version #1.10   01/31/03                *
          *                                                        *
          *  A pseudopotential plane-wave band structure program   *
          *  with Brillouin zone sampling for optimizing crystals, *
          *  slabs, and polymers.  Developed by Eric J. Bylaska    *
          *  , Edoardo Apra, and Patrick Nichols.                  *
          *                                                        *
          **********************************************************
     >>>  JOB STARTED       AT Tue Jan 31 19:22:21 2012  <<<
          ================ input data ========================
 Brillioun Zone Vectors do not match!

 pseudopotential is not correctly formatted:Mg.cpp                                            

 pseudopotential is not correctly formatted---bad brillioun zone:Mg.cpp                                            

 Generated formatted_filename: ./perm/Mg.cpp
 - Spline fitted, nray= 4338 -
 - filtered -
 Brillioun Zone Vectors do not match!

 pseudopotential is not correctly formatted:O.cpp                                             

 pseudopotential is not correctly formatted---bad brillioun zone:O.cpp                                             

 Generated formatted_filename: ./perm/O.cpp
 - Spline fitted, nray= 4338 -
 - filtered -
 Brillioun Zone Vectors do not match!

 pseudopotential is not correctly formatted:H.cpp                                             

 pseudopotential is not correctly formatted---bad brillioun zone:H.cpp                                             

 Generated formatted_filename: ./perm/H.cpp
 - Spline fitted, nray= 4338 -
 - filtered -
 Error reading psi - bad unitcell
  - Ignored if the following  parameter is set
  - set nwpw:psi_nolattice .true.
 Error reading psi - bad unitcell
  - Ignored if the following  parameter is set
  - set nwpw:psi_nolattice .true.
 Error reading psi - bad unitcell
  - Ignored if the following  parameter is set
  - set nwpw:psi_nolattice .true.

 input psi filename:./perm/brucite.movecs

 number of processors used:               1
 processor grid           :   1 x   1 x   1
 parallel mapping         :     2d  hilbert

 options:
      boundary conditions  = periodic    (version3)
      electron spin        = restricted
      exchange-correlation = PBE96 (White and Bird) parameterization

 elements involved in the cluster:
      1: Mg    core charge: 2.0  lmax=2
             comment    : Troullier-Martins pseudopotential
             pseudpotential type            :   0
             highest angular component      :   2
             local potential used           :   2
             number of non-local projections:   4
             semicore corrections included  :  1.730 (radius)  0.715 (charge)
             cutoff =   2.592   2.592   2.592
      2: O     core charge: 6.0  lmax=2
             comment    : Parameterized (Chem.Phys.Lett., vol 322, page 447) Hamman psp
             pseudpotential type            :   0
             highest angular component      :   2
             local potential used           :   2
             number of non-local projections:   4
             cutoff =   0.700   0.700   0.700
      3: H     core charge: 1.0  lmax=1
             comment    : Parameterized (Chem.Phys.Lett., vol 322, page 447) Hamman psp
             pseudpotential type            :   0
             highest angular component      :   1
             local potential used           :   1
             number of non-local projections:   1
             cutoff =   0.800   0.800

 total charge:   0.000

 atomic composition:
     Mg  :  1     O   :  2     H   :  2

 number of electrons: spin up=    8.00  spin down=    8.00 (fourier space)
 number of orbitals:  spin up=       8  spin down=       8 (fourier space)

 supercell:
      lattice:    a1=<   4.944  -2.854   0.000 >
                  a2=<   0.000   5.709   0.000 >
                  a3=<   0.000   0.000   8.429 >
      reciprocal: b1=<   1.271   0.000  -0.000 >
                  b2=<   0.635   1.101  -0.000 >
                  b3=<  -0.000   0.000   0.745 >

      lattice:    a=   5.709    b=   5.709     c=   8.429
              alpha=  90.000 beta=  90.000 gamma= 120.000
      volume :      237.9
      ewald summation: cut radius=    3.00  and  8
                        madelung= 1.63465416

 brillouin zone:
      number of zone points:     2
      weight=   0.500  ks=<   0.250   0.250  -0.000 >, k=<   0.477   0.275  -0.000>
      weight=   0.500  ks=<   0.250  -0.250   0.000 >, k=<   0.159  -0.275   0.000>

 computational grids:
      density     cutoff=100.000  fft=  24x  24x  40(    10973 waves    10973 per task)
      wavefnc   1 cutoff= 50.000  fft=  24x  24x  40(     4021 waves     4021 per task)
      wavefnc   2 cutoff= 50.000  fft=  24x  24x  40(     4024 waves     4024 per task)

 technical parameters:
      time step=      5.80     ficticious mass=  400000.0
      tolerance=.100E-06 (energy)   0.100E-06 (density)
      maximum iterations =      1000 (   10 inner    100 outer )



= energy calculation =


          ======== bundled Grassmann lmbfgs iteration ========
     >>>  ITERATION STARTED AT Tue Jan 31 19:22:32 2012  <<<
    iter.           Energy         DeltaE       DeltaRho 
    ------------------------------------------------------
      10   -0.3440409580E+02   -0.43118E-06    0.50779E-04
      20   -0.3440409640E+02   -0.72117E-07    0.22432E-07
  *** tolerance ok.    iteration terminated.
     >>>  ITERATION ENDED   AT Tue Jan 31 19:22:35 2012  <<<


          =============  summary of results  =================

 number of electrons: spin up=    8.00000  down=    8.00000 (real space)

 total     energy    :  -0.3440409640E+02 (   -0.68808E+01/ion)
 total orbital energy:  -0.1952026944E+01 (   -0.24400E+00/electron)
 hartree   energy    :   0.1049202126E+02 (    0.13115E+01/electron)
 exc-corr  energy    :  -0.8627746328E+01 (   -0.10785E+01/electron)
 ion-ion   energy    :  -0.2426438326E+02 (   -0.48529E+01/ion)

 K.S. kinetic energy :   0.2422151446E+02 (    0.30277E+01/electron)
 K.S. V_l  energy    :  -0.3432472027E+02 (   -0.42906E+01/electron)
 K.S. V_nl energy    :  -0.1900782268E+01 (   -0.23760E+00/electron)
 K.S. V_Hart energy  :   0.2098404253E+02 (    0.26230E+01/electron)
 K.S. V_xc energy    :  -0.1093208140E+02 (   -0.13665E+01/electron)
 K.S. V_so energy    :   0.0000000000E+00 (    0.00000E+00/electron)
 Virial Coefficient  :  -0.1080590623E+01

 Brillouin zone point:      1
    weight=  0.500000
    k     =<   0.250   0.250  -0.000> . <b1,b2,b3> 
          =<   0.477   0.275  -0.000>

 orbital energies:
     0.8799045E-01 (   2.394eV) occ=1.000
     0.5346126E-01 (   1.455eV) occ=1.000
     0.2703451E-01 (   0.736eV) occ=1.000
     0.4810710E-02 (   0.131eV) occ=1.000
    -0.4789349E-01 (  -1.303eV) occ=1.000
    -0.9546752E-01 (  -2.598eV) occ=1.000
    -0.5145516E+00 ( -14.002eV) occ=1.000
    -0.5360025E+00 ( -14.585eV) occ=1.000

 Brillouin zone point:      2
    weight=  0.500000
    k     =<   0.250  -0.250   0.000> . <b1,b2,b3> 
          =<   0.159  -0.275   0.000>

 orbital energies:
     0.1144850E+00 (   3.115eV) occ=1.000
     0.7747383E-01 (   2.108eV) occ=1.000
     0.6260229E-01 (   1.704eV) occ=1.000
     0.3480306E-01 (   0.947eV) occ=1.000
    -0.2112636E-01 (  -0.575eV) occ=1.000
    -0.1316496E+00 (  -3.582eV) occ=1.000
    -0.5095202E+00 ( -13.865eV) occ=1.000
    -0.5584767E+00 ( -15.197eV) occ=1.000

 Total BAND energy   :  -0.3440409640E+02


=== Spin Contamination ===

 <Sexact^2> =    0.0000000000000000     
 <S^2>      =    0.0000000000000000     



========================
= Gradient calculation =
========================


Translation force removed: (   -0.00000    0.00000   -0.00000)


          =============  Ion Gradients =================
 Ion Forces:
        1 Mg   (    0.00000   -0.00000    0.00000 )
        2 O    (    0.00086   -0.00148   -0.00008 )
        3 O    (   -0.00086    0.00148    0.00008 )
        4 H    (    0.00042   -0.00073    0.00023 )
        5 H    (   -0.00042    0.00073   -0.00023 )
        C.O.M. (    0.00000   -0.00000   -0.00000 )
          ===============================================
          |F|       =   0.272001E-02
          |F|/nion  =   0.544002E-03
          max|Fatom|=   0.171394E-02 (   0.088eV/Angstrom)


 pseudopotential is not correctly formatted:Mg.cpp2                                           

 pseudopotential is not correctly formatted-bad brillioun zone:Mg.cpp2                                           

 Generated formatted_stress_filename: ./perm/Mg.cpp2
 - Spline fitted, nray= 4338 -
 - filtered -
 pseudopotential is not correctly formatted:O.cpp2                                            

 pseudopotential is not correctly formatted-bad brillioun zone:O.cpp2                                            

 Generated formatted_stress_filename: ./perm/O.cpp2
 - Spline fitted, nray= 4338 -
 - filtered -
 pseudopotential is not correctly formatted:H.cpp2                                            

 pseudopotential is not correctly formatted-bad brillioun zone:H.cpp2                                            

 Generated formatted_stress_filename: ./perm/H.cpp2
 - Spline fitted, nray= 4338 -
 - filtered -


======================
= Stress calculation =
======================


          ============= total gradient ==============
      S =  (   -0.00478   -0.00925   -0.00020 )
           (   -0.00791   -0.00019    0.00035 )
           (   -0.00035    0.00035    0.00004 )
          ===================================================
          |S|      = 0.13094E-01
          pressure = -.164E-02 au
                   = -.484E+00 Mbar
                   = -.484E+02 GPa
                   = -.477E+06 atm


       dE/da     =    -0.00019
       dE/db     =    -0.00019
       dE/dc     =     0.00004
       dE/dalpha =    -0.00198
       dE/dbeta  =     0.00198
       dE/dgamma =     0.05278


 Writing Crystallographic Information File:./perm/brucite.cif
   - cell not shifted (nwpw:cif_shift_cell .false.)

 output psi filename:./perm/brucite.movecs


== Timing ==

cputime in seconds
  prologue    :   0.113562E+02
  main loop   :   0.147607E+02
  epilogue    :   0.103960E+00
  total       :   0.262209E+02
  cputime/step:   0.461273E+00       (      32 evalulations,      14 linesearches)


Time spent doing                        total          step
  FFTs                       :   0.361172E+00  0.112866E-01
  dot products               :   0.579494E+00  0.181092E-01
  geodesic                   :   0.408558E+00  0.127674E-01
  ffm_dgemm                  :   0.000000E+00  0.000000E+00
  fmf_dgemm                  :   0.000000E+00  0.000000E+00
  m_diagonalize              :   0.000000E+00  0.000000E+00
    - m_tredq                :   0.000000E+00  0.000000E+00
       - m_tredq_houseq      :   0.000000E+00  0.000000E+00
       - m_tredq_houseq_dgemm:   0.000000E+00  0.000000E+00
       - m_tredq_dgemm1      :   0.000000E+00  0.000000E+00
    - m_getdiags             :   0.000000E+00  0.000000E+00
    - m_tqliq                :   0.000000E+00  0.000000E+00
    - m_eigsrt               :   0.000000E+00  0.000000E+00
  exchange correlation       :   0.599404E+00  0.187314E-01
  local pseudopotentials     :   0.679000E-02  0.212188E-03
  non-local pseudopotentials :   0.246640E+00  0.770750E-02
  hartree potentials         :   0.709200E-02  0.221625E-03
  ion-ion interaction        :   0.176118E+00  0.550369E-02
  structure factors          :   0.187600E-01  0.586250E-03
  phase factors              :   0.000000E+00  0.000000E+00
  masking and packing        :   0.202452E+00  0.632662E-02
  queue fft                  :   0.142715E+01  0.445985E-01
  queue fft (serial)         :   0.791770E+00  0.247428E-01
  queue fft (message passing):   0.578246E+00  0.180702E-01
  HFX potential              :   0.000000E+00  0.000000E+00
  qmmm LJ                    :   0.000000E+00  0.000000E+00
  qmmm residual Q            :   0.000000E+00  0.000000E+00

     >>>  JOB COMPLETED     AT Tue Jan 31 19:22:47 2012  <<<

  Step       Energy      Delta E   Gmax     Grms     Xrms     Xmax   Walltime
  ---- ---------------- -------- -------- -------- -------- -------- --------
@   21     -34.40409640 -5.6D-06  0.00846  0.00417  0.00332  0.01160    977.8
                                                                    


 ---------------------------------------------------------------
 Failed to converge in maximum number of steps or available time
 ---------------------------------------------------------------


  Step       Energy      Delta E   Gmax     Grms     Xrms     Xmax   Walltime
  ---- ---------------- -------- -------- -------- -------- -------- --------
@   21     -34.40409640 -5.6D-06  0.00846  0.00417  0.00332  0.01160    977.8
                                                                    



                         Geometry "geometry" -> "geometry"
                         ---------------------------------

 Output coordinates in angstroms (scale by  1.889725989 to convert to a.u.)

  No.       Tag          Charge          X              Y              Z
 ---- ---------------- ---------- -------------- -------------- --------------
    1 Mg                  12.0000     0.00000000     0.00000000     0.00000000
    2 O                    8.0000     0.87206239     1.51045637     1.05620754
    3 O                    8.0000     1.74412478     0.00000000     3.40435460
    4 H                    1.0000     0.87206239     1.51045637     2.00813905
    5 H                    1.0000     1.74412478     0.00000000     2.45242309

      Lattice Parameters 
      ------------------ 

      lattice vectors in angstroms (scale by  1.889725989 to convert to a.u.)

      a1=<   2.616  -1.510   0.000 >
      a2=<   0.000   3.021   0.000 >
      a3=<   0.000   0.000   4.461 >
      a=       3.021 b=      3.021 c=       4.461
      alpha=  90.000 beta=  90.000 gamma= 120.000
      omega=    35.3

      reciprocal lattice vectors in a.u.

      b1=<   1.271   0.000  -0.000 >
      b2=<   0.635   1.101  -0.000 >
      b3=<  -0.000   0.000   0.745 >

      Atomic Mass 
      ----------- 

      Mg                23.985040
      O                 15.994910
      H                  1.007825


      Symmetry information
      --------------------

 Group name                  P-3m1
 Group number            164
 Group order              12
 No. of unique centers     3
 Setting number            1

      Symmetry unique atoms

     1    2    4

 ==============================================================================
                                internuclear distances
 ------------------------------------------------------------------------------
       center one      |      center two      | atomic units |  angstroms
 ------------------------------------------------------------------------------
    2 O                |   1 Mg               |     3.85316  |     2.03901
    4 H                |   2 O                |     1.79889  |     0.95193
    5 H                |   3 O                |     1.79889  |     0.95193
 ------------------------------------------------------------------------------
                         number of included internuclear distances:          3
 ==============================================================================



 ==============================================================================
                                 internuclear angles
 ------------------------------------------------------------------------------
        center 1       |       center 2       |       center 3       |  degrees
 ------------------------------------------------------------------------------
    1 Mg               |   2 O                |   4 H                |   121.20
 ------------------------------------------------------------------------------
                            number of included internuclear angles:          1
 ==============================================================================



  !! warning: band optimize failed

 Task  times  cpu:      969.1s     wall:      977.3s
 Summary of allocated global arrays
-----------------------------------
  No active global arrays



                         GA Statistics for process    0
                         ------------------------------

       create   destroy   get      put      acc     scatter   gather  read&inc
calls:    0        0        0        0        0        0        0        0     
number of processes/call 0.00e+00 0.00e+00 0.00e+00 0.00e+00 0.00e+00
bytes total:             0.00e+00 0.00e+00 0.00e+00 0.00e+00 0.00e+00 0.00e+00
bytes remote:            0.00e+00 0.00e+00 0.00e+00 0.00e+00 0.00e+00 0.00e+00
Max memory consumed for GA by this process: 0 bytes
MA_summarize_allocated_blocks: starting scan ...
MA_summarize_allocated_blocks: scan completed: 0 heap blocks, 0 stack blocks
MA usage statistics:

	allocation statistics:
					      heap	     stack
					      ----	     -----
	current number of blocks	         0	         0
	maximum number of blocks	       314	        15
	current total bytes		         0	         0
	maximum total bytes		  39544332	   5551300
	maximum total K-bytes		     39545	      5552
	maximum total M-bytes		        40	         6


                                NWChem Input Module
                                -------------------





                                     CITATION
                                     --------
                Please cite the following reference when publishing
                           results obtained with NWChem:

                 M. Valiev, E.J. Bylaska, N. Govind, K. Kowalski,
              T.P. Straatsma, H.J.J. van Dam, D. Wang, J. Nieplocha,
                        E. Apra, T.L. Windus, W.A. de Jong
                 "NWChem: a comprehensive and scalable open-source
                  solution for large scale molecular simulations"
                      Comput. Phys. Commun. 181, 1477 (2010)
                           doi:10.1016/j.cpc.2010.04.018

                              AUTHORS & CONTRIBUTORS
                              ----------------------
      E. J. Bylaska, W. A. de Jong, N. Govind, K. Kowalski, T. P. Straatsma,
     M. Valiev, H. J. J. van Dam, D. Wang, E. Apra, T. L. Windus, J. Hammond,
    J. Autschbach, F. Aquino, J. Mullin, P. Nichols, S. Hirata, M. T. Hackler,
   Y. Zhao, P.-D. Fan, R. J. Harrison, M. Dupuis, D. M. A. Smith, K. Glaesemann,
    J. Nieplocha, V. Tipparaju, M. Krishnan, A. Vazquez-Mayagoitia, L. Jensen,
      M. Swart, Q. Wu, T. Van Voorhis, A. A. Auer, M. Nooijen, L. D. Crosby,
        E. Brown, G. Cisneros, G. I. Fann, H. Fruchtl, J. Garza, K. Hirao,
        R. Kendall, J. A. Nichols, K. Tsemekhman, K. Wolinski, J. Anchell,
       D. Bernholdt, P. Borowski, T. Clark, D. Clerc, H. Dachsel, M. Deegan,
        K. Dyall, D. Elwood, E. Glendening, M. Gutowski, A. Hess, J. Jaffe,
        B. Johnson, J. Ju, R. Kobayashi, R. Kutteh, Z. Lin, R. Littlefield,
    X. Long, B. Meng, T. Nakajima, S. Niu, L. Pollack, M. Rosing, G. Sandrone,
       M. Stave, H. Taylor, G. Thomas, J. H. van Lenthe, A. Wong, Z. Zhang.

 Total times  cpu:      969.2s     wall:      977.8s
