 argument  1 = diamond-band.nw
 argument  2 = -np
 argument  3 = 2
 


============================== echo of input deck ==============================
title "Diamond 8 atom cubic cell - geometry and unit cell optimization"
echo

permanent_dir ./perm
scratch_dir   ./scratch

start diamond-band

memory 1950 mb

#**** Enter the geometry using fractional coordinates ****
geometry center noautosym noautoz print
  system crystal
    lat_a 3.58d0
    lat_b 3.58d0
    lat_c 3.58d0
    alpha 90.0d0
    beta  90.0d0
    gamma 90.0d0
  end
  C -0.50000d0 -0.50000d0 -0.50000d0
  C  0.00000d0  0.00000d0 -0.50000d0
  C  0.00000d0 -0.50000d0  0.00000d0
  C -0.50000d0  0.00000d0  0.00000d0
  C -0.25000d0 -0.25000d0 -0.25000d0
  C  0.25000d0  0.25000d0 -0.25000d0
  C  0.25000d0 -0.25000d0  0.25000d0
  C -0.25000d0  0.25000d0  0.25000d0
end
set includestress    .true.   # option tells driver to optimize the unit cell
set nwpw:zero_forces .true.   # option zeros the forces on the atoms--> only lattice parameters optimized

nwpw
  ewald_rcut 3.0
  ewald_ncut 8    #The default value of 1 needs to be increased
  lmbfgs
  xc pbe96
end

#1x1x1 k-point mesh
nwpw
  monkhorst-pack 1 1 1
end
set nwpw:cif_filename diamond111.opt
driver; clear; maxiter 40; end; task band optimize ignore

#2x2x2 k-point mesh
nwpw
  monkhorst-pack 2 2 2
end
set nwpw:cif_filename diamond222.opt
driver; clear; maxiter 40; end; task band optimize ignore


#3x3x3 k-point mesh
nwpw
  monkhorst-pack 3 3 3
end
set nwpw:cif_filename diamond333.opt
driver; clear; maxiter 40; end; task band optimize ignore

#4x4x4 k-point mesh
nwpw
  monkhorst-pack 4 4 4
end
set nwpw:cif_filename diamond444.opt
driver; clear; maxiter 40; end; task band optimize ignore

#5x5x5 k-point mesh
nwpw
  monkhorst-pack 5 5 5
end
set nwpw:cif_filename diamond555.opt
driver; clear; maxiter 40; end; task band optimize ignore
================================================================================


                                         
                                         
 
 
             Northwest Computational Chemistry Package (NWChem) 5.1.1
             --------------------------------------------------------
 
 
                    Environmental Molecular Sciences Laboratory
                       Pacific Northwest National Laboratory
                                Richland, WA 99352
 
                                         
                                         
 
 
                  COPYRIGHT (C) 1994, 1995, 1996, 1997, 1998, 1999,
                2000, 2001, 2002, 2003, 2004, 2005, 2006, 2007, 2008,
                                     2009, 2010
                        Pacific Northwest National Laboratory,
                             Battelle Memorial Institute.
 
                            >>> All Rights Reserved <<<
 
 
                                    DISCLAIMER
                                    ----------

            This material was prepared as an account of work sponsored
            by an agency of the United States Government.  Neither the
            United States Government nor the United States Department
            of Energy, nor Battelle, nor any of their employees, MAKES
            ANY WARRANTY, EXPRESS OR IMPLIED, OR ASSUMES ANY LEGAL
            LIABILITY OR RESPONSIBILITY FOR THE ACCURACY, COMPLETENESS,
            OR USEFULNESS OF ANY INFORMATION, APPARATUS, PRODUCT,
            SOFTWARE, OR PROCESS DISCLOSED, OR REPRESENTS THAT ITS USE
            WOULD NOT INFRINGE PRIVATELY OWNED RIGHTS.


                                    LIMITED USE
                                    -----------

            This software (including any documentation) is being made
            available to you for your internal use only, solely for use
            in performance of work directly for the U.S. Federal
            Government or work under contracts with the U.S. Department
            of Energy or other U.S. Federal Government agencies.  This
            software is a version which has not yet been evaluated and
            cleared for commercialization.  Adherence to this notice
            may be necessary for the author, Battelle Memorial
            Institute, to successfully assert copyright in and
            commercialize this software. This software is not intended
            for duplication or distribution to third parties without
            the permission of the Manager of Software Products at
            Pacific Northwest National Laboratory, Richland,
            Washington, 99352.


                                  ACKNOWLEDGMENT
                                  --------------

            This software and its documentation were produced with
            Government support under Contract Number DE-AC05-76RL01830
            awarded by the United States Department of Energy.  The
            Government retains a paid-up non-exclusive, irrevocable
            worldwide license to reproduce, prepare derivative works,
            perform publicly and display publicly by or for the
            Government, including the right to distribute to other
            Government contractors.


           Job information
           ---------------

    hostname      = seattle-1
    program       = nwchem
    date          = Fri Aug 27 10:36:56 2010

    compiled      = Fri_Aug_20_12:08:24_2010
    source        = /home/bylaska/nwchem-releases/nwchem
    nwchem branch = Development
    input         = diamond-band.nw
    prefix        = diamond-band.
    data base     = ./perm/diamond-band.db
    status        = startup
    nproc         =        2
    time left     =     -1s



           Memory information
           ------------------

    heap      =   63897601 doubles =    487.5 Mbytes
    stack     =   63897601 doubles =    487.5 Mbytes
    global    =  127795200 doubles =    975.0 Mbytes (distinct from heap & stack)
    total     =  255590402 doubles =   1950.0 Mbytes
    verify    = yes
    hardfail  = no 


           Directory information
           ---------------------
 
  0 permanent = ./perm
  0 scratch   = ./scratch
 
 
 
 
                                NWChem Input Module
                                -------------------
 
 
          Diamond 8 atom cubic cell - geometry and unit cell optimization
          ---------------------------------------------------------------
 
  !!!!!!!!!  geom_3d NEEDS TESTING !!!!!!!!!! 
 
 
                             Geometry "geometry" -> ""
                             -------------------------
 
 Output coordinates in angstroms (scale by  1.889725989 to convert to a.u.)
 
  No.       Tag          Charge          X              Y              Z
 ---- ---------------- ---------- -------------- -------------- --------------
    1 C                    6.0000     1.79000000     1.79000000     1.79000000
    2 C                    6.0000     0.00000000     0.00000000     1.79000000
    3 C                    6.0000     0.00000000     1.79000000     0.00000000
    4 C                    6.0000     1.79000000     0.00000000     0.00000000
    5 C                    6.0000     2.68500000     2.68500000     2.68500000
    6 C                    6.0000     0.89500000     0.89500000     2.68500000
    7 C                    6.0000     0.89500000     2.68500000     0.89500000
    8 C                    6.0000     2.68500000     0.89500000     0.89500000
 
      Lattice Parameters 
      ------------------ 
 
      lattice vectors in angstroms (scale by  1.889725989 to convert to a.u.)
 
      a1=<   3.580   0.000   0.000 >
      a2=<   0.000   3.580   0.000 >
      a3=<   0.000   0.000   3.580 >
      a=       3.580 b=      3.580 c=       3.580
      alpha=  90.000 beta=  90.000 gamma=  90.000
      omega=    45.9
 
      reciprocal lattice vectors in a.u.
 
      b1=<   0.929   0.000   0.000 >
      b2=<   0.000   0.929   0.000 >
      b3=<   0.000   0.000   0.929 >
 
      Atomic Mass 
      ----------- 
 
      C                 12.000000
 
 
 ==============================================================================
                                internuclear distances
 ------------------------------------------------------------------------------
       center one      |      center two      | atomic units |  angstroms
 ------------------------------------------------------------------------------
    5 C                |   1 C                |     2.92943  |     1.55019
    6 C                |   1 C                |     2.92943  |     1.55019
    6 C                |   2 C                |     2.92943  |     1.55019
    7 C                |   1 C                |     2.92943  |     1.55019
    7 C                |   3 C                |     2.92943  |     1.55019
    8 C                |   1 C                |     2.92943  |     1.55019
    8 C                |   4 C                |     2.92943  |     1.55019
 ------------------------------------------------------------------------------
                         number of included internuclear distances:          7
 ==============================================================================



 ==============================================================================
                                 internuclear angles
 ------------------------------------------------------------------------------
        center 1       |       center 2       |       center 3       |  degrees
 ------------------------------------------------------------------------------
    5 C                |   1 C                |   6 C                |   109.47
    5 C                |   1 C                |   7 C                |   109.47
    5 C                |   1 C                |   8 C                |   109.47
    6 C                |   1 C                |   7 C                |   109.47
    6 C                |   1 C                |   8 C                |   109.47
    7 C                |   1 C                |   8 C                |   109.47
    1 C                |   6 C                |   2 C                |   109.47
    1 C                |   7 C                |   3 C                |   109.47
    1 C                |   8 C                |   4 C                |   109.47
 ------------------------------------------------------------------------------
                            number of included internuclear angles:          9
 ==============================================================================



 
  Deleted DRIVER restart files 
 
 
 
                           NWChem Geometry Optimization
                           ----------------------------
 
 
 
 
          Diamond 8 atom cubic cell - geometry and unit cell optimization
 
 
 maximum gradient threshold         (gmax) =   0.000450
 rms gradient threshold             (grms) =   0.000300
 maximum cartesian step threshold   (xmax) =   0.001800
 rms cartesian step threshold       (xrms) =   0.001200
 fixed trust radius                (trust) =   0.300000
 maximum step size to saddle      (sadstp) =   0.100000
 energy precision                  (eprec) =   1.0D-07
 maximum number of steps          (nptopt) =   40
 initial hessian option           (inhess) =    0
 line search option               (linopt) =    1
 hessian update option            (modupd) =    1
 saddle point option              (modsad) =    0
 initial eigen-mode to follow     (moddir) =    0
 initial variable to follow       (vardir) =    0
 follow first negative mode     (firstneg) =    T
 apply conjugacy                    (opcg) =    F
 source of zmatrix                         =           


          -------------------
          Energy Minimization
          -------------------

  INCLUDING STRESS !!!!!!!!!!!!!!!!
 
 Using diagonal initial Hessian 
  The initial hessian 

              1        2        3        4        5        6        7        8
    1   22.8841   0.0000   0.0000   0.0000   0.0000   0.0000   0.0000   0.0000
    2    0.0000  22.8841   0.0000   0.0000   0.0000   0.0000   0.0000   0.0000
    3    0.0000   0.0000  22.8841   0.0000   0.0000   0.0000   0.0000   0.0000
    4    0.0000   0.0000   0.0000  22.8841   0.0000   0.0000   0.0000   0.0000
    5    0.0000   0.0000   0.0000   0.0000  22.8841   0.0000   0.0000   0.0000
    6    0.0000   0.0000   0.0000   0.0000   0.0000  22.8841   0.0000   0.0000
    7    0.0000   0.0000   0.0000   0.0000   0.0000   0.0000  22.8841   0.0000
    8    0.0000   0.0000   0.0000   0.0000   0.0000   0.0000   0.0000  22.8841

              9       10       11       12       13       14       15       16
    9   22.8841   0.0000   0.0000   0.0000   0.0000   0.0000   0.0000   0.0000
   10    0.0000  22.8841   0.0000   0.0000   0.0000   0.0000   0.0000   0.0000
   11    0.0000   0.0000  22.8841   0.0000   0.0000   0.0000   0.0000   0.0000
   12    0.0000   0.0000   0.0000  22.8841   0.0000   0.0000   0.0000   0.0000
   13    0.0000   0.0000   0.0000   0.0000  22.8841   0.0000   0.0000   0.0000
   14    0.0000   0.0000   0.0000   0.0000   0.0000  22.8841   0.0000   0.0000
   15    0.0000   0.0000   0.0000   0.0000   0.0000   0.0000  22.8841   0.0000
   16    0.0000   0.0000   0.0000   0.0000   0.0000   0.0000   0.0000  22.8841

             17       18       19       20       21       22       23       24
   17   22.8841   0.0000   0.0000   0.0000   0.0000   0.0000   0.0000   0.0000
   18    0.0000  22.8841   0.0000   0.0000   0.0000   0.0000   0.0000   0.0000
   19    0.0000   0.0000  22.8841   0.0000   0.0000   0.0000   0.0000   0.0000
   20    0.0000   0.0000   0.0000  22.8841   0.0000   0.0000   0.0000   0.0000
   21    0.0000   0.0000   0.0000   0.0000  22.8841   0.0000   0.0000   0.0000
   22    0.0000   0.0000   0.0000   0.0000   0.0000  22.8841   0.0000   0.0000
   23    0.0000   0.0000   0.0000   0.0000   0.0000   0.0000  22.8841   0.0000
   24    0.0000   0.0000   0.0000   0.0000   0.0000   0.0000   0.0000  22.8841

             25       26       27       28       29       30       31       32
   25    0.5000   0.0000   0.0000   0.0000   0.0000   0.0000   0.0000   0.0000
   26    0.0000   0.5000   0.0000   0.0000   0.0000   0.0000   0.0000   0.0000
   27    0.0000   0.0000   0.5000   0.0000   0.0000   0.0000   0.0000   0.0000
   28    0.0000   0.0000   0.0000   0.5000   0.0000   0.0000   0.0000   0.0000
   29    0.0000   0.0000   0.0000   0.0000   0.5000   0.0000   0.0000   0.0000
   30    0.0000   0.0000   0.0000   0.0000   0.0000   0.5000   0.0000   0.0000
   31    0.0000   0.0000   0.0000   0.0000   0.0000   0.0000   0.5000   0.0000
   32    0.0000   0.0000   0.0000   0.0000   0.0000   0.0000   0.0000   0.5000

             33      
   33    0.5000

          --------
          Step   0
          --------
 
 
                         Geometry "geometry" -> "geometry"
                         ---------------------------------
 
 Output coordinates in angstroms (scale by  1.889725989 to convert to a.u.)
 
  No.       Tag          Charge          X              Y              Z
 ---- ---------------- ---------- -------------- -------------- --------------
    1 C                    6.0000     1.79000000     1.79000000     1.79000000
    2 C                    6.0000     0.00000000     0.00000000     1.79000000
    3 C                    6.0000     0.00000000     1.79000000     0.00000000
    4 C                    6.0000     1.79000000     0.00000000     0.00000000
    5 C                    6.0000     2.68500000     2.68500000     2.68500000
    6 C                    6.0000     0.89500000     0.89500000     2.68500000
    7 C                    6.0000     0.89500000     2.68500000     0.89500000
    8 C                    6.0000     2.68500000     0.89500000     0.89500000
 
      Lattice Parameters 
      ------------------ 
 
      lattice vectors in angstroms (scale by  1.889725989 to convert to a.u.)
 
      a1=<   3.580   0.000   0.000 >
      a2=<   0.000   3.580   0.000 >
      a3=<   0.000   0.000   3.580 >
      a=       3.580 b=      3.580 c=       3.580
      alpha=  90.000 beta=  90.000 gamma=  90.000
      omega=    45.9
 
      reciprocal lattice vectors in a.u.
 
      b1=<   0.929   0.000   0.000 >
      b2=<   0.000   0.929   0.000 >
      b3=<   0.000   0.000   0.929 >
 
      Atomic Mass 
      ----------- 
 
      C                 12.000000
 
 
  library name resolved from: compiled reference
  NWCHEM_NWPW_LIBRARY set to: <
 /home/bylaska/nwchem-releases/nwchem/src/nwpw/libraryps/>
          **********************************************************
          *                                                        *
          *                   NWPW BAND Calculation                *
          *                                                        *
          *  [(bundled Grassman/Stiefel manifold implementation)]  *
          *                                                        *
          *         [ NorthWest Chemistry implementation ]         *
          *                                                        *
          *                version #1.10   01/31/03                *
          *                                                        *
          *  A pseudopotential plane-wave band structure program   *
          *  with Brillouin zone sampling for optimizing crystals, *
          *  slabs, and polymers.  Developed by Eric J. Bylaska    *
          *  , Edoardo Apra, and Patrick Nichols.                  *
          *                                                        *
          **********************************************************
     >>>  JOB STARTED       AT Fri Aug 27 10:36:56 2010  <<<
          ================ input data ========================
  library name resolved from: compiled reference
  NWCHEM_NWPW_LIBRARY set to: <
 /home/bylaska/nwchem-releases/nwchem/src/nwpw/libraryps/>
 Generating 1d pseudopotential for C   
 
 Generated formatted_filename: ./perm/C.cpp
 random planewave guess, initial psi:
 diamond-band.movecs                               
 -   spin, nalpha, nbeta:                     1                    16
                     0

 input psi filename:./perm/diamond-band.movecs
Warning - Orthogonalization performed, spin,zone: 1   1
        - error(before)=  0.205291E+01 (  0.139471E+02)
        - error(after)=   0.888178E-14 (  0.160000E+02)
 
 Fixed ion positions:    1    2    3    4    5    6    7    8
 

 number of processors used:               2
 processor grid           :   2 x   1 x   1
 parallel mapping         :         hilbert

 options:
      boundary conditions  = periodic    (version3)
      electron spin        = restricted
      exchange-correlation = PBE96 (White and Bird) parameterization

 elements involved in the cluster:
      1: C     core charge: 4.0  lmax=2
             comment    : Parameterized (J.Phys.Chem., vol 100, page 6966) Hamman psp
             pseudpotential type            :   0
             highest angular component      :   2
             local potential used           :   2
             number of non-local projections:   4
             cutoff =   0.800   0.850   0.850

 total charge:   0.000

 atomic composition:
     C   :  8

 number of electrons: spin up=   16.00  spin down=   16.00 (fourier space)
 number of orbitals:  spin up=      16  spin down=      16 (fourier space)

 supercell:
      lattice:    a1=<   6.765   0.000   0.000 >
                  a2=<   0.000   6.765   0.000 >
                  a3=<   0.000   0.000   6.765 >
      reciprocal: b1=<   0.929   0.000   0.000 >
                  b2=<   0.000   0.929   0.000 >
                  b3=<   0.000   0.000   0.929 >

      lattice:    a=   6.765    b=   6.765     c=   6.765
              alpha=  90.000 beta=  90.000 gamma=  90.000
      volume :      309.6
      ewald summation: cut radius=    3.00  and  8
                        madelung= 1.76011888

 brillouin zone:
      number of zone points:     1
      weight=   1.000  ks=<   0.000   0.000   0.000 >, k=<   0.000   0.000   0.000>

 computational grids:
      density     cutoff= 70.000  fft=  28x  28x  28(     8709 waves     4355 per task)
      wavefnc   1 cutoff= 35.000  fft=  28x  28x  28(     3071 waves     1536 per task)

 technical parameters:
      time step=      5.80     ficticious mass=  400000.0
      tolerance=.100E-06 (energy)   0.100E-06 (density)
      maximum iterations =    1000 (   10 inner  100 outer )



= energy calculation =


          ======== bundled Grassmann lmbfgs iteration ========
     >>>  ITERATION STARTED AT Fri Aug 27 10:36:57 2010  <<<
    iter.           Energy         DeltaE       DeltaRho 
    ------------------------------------------------------
     -  10 steepest descent iterations performed
      10   -0.3958064496E+02   -0.97192E+00    0.14101E+01
     -  10 steepest descent iterations performed
      20   -0.4376557465E+02   -0.11058E+00    0.72645E-01
     -  10 steepest descent iterations performed
      30   -0.4418007243E+02   -0.69587E-02    0.65788E-02
      40   -0.4462677036E+02   -0.54748E-01    0.24397E-01
     -  10 steepest descent iterations performed
      50   -0.4503153204E+02   -0.92427E-02    0.93874E-02
      60   -0.4506324801E+02   -0.50259E-03    0.76708E-03
      70   -0.4506442688E+02   -0.11952E-04    0.20852E-04
      80   -0.4506446152E+02   -0.20080E-05    0.97075E-06
      90   -0.4506446574E+02   -0.74575E-07    0.63928E-07
  *** tolerance ok.    iteration terminated.
     >>>  ITERATION ENDED   AT Fri Aug 27 10:37:11 2010  <<<


          =============  summary of results  =================
 
 number of electrons: spin up=   16.00000  down=   16.00000 (real space)

 total     energy    :  -0.4506446574E+02 (   -0.56331E+01/ion)
 total orbital energy:   0.5866496323E+01 (    0.36666E+00/electron)
 hartree   energy    :   0.4330569879E+01 (    0.27066E+00/electron)
 exc-corr  energy    :  -0.1439260783E+02 (   -0.89954E+00/electron)
 ion-ion   energy    :  -0.5095992795E+02 (   -0.63700E+01/ion)

 K.S. kinetic energy :   0.3454028800E+02 (    0.21588E+01/electron)
 K.S. V_l  energy    :  -0.1749176973E+02 (   -0.10932E+01/electron)
 K.S. V_nl energy    :  -0.1091018108E+01 (   -0.68189E-01/electron)
 K.S. V_Hart energy  :   0.8661139758E+01 (    0.54132E+00/electron)
 K.S. V_xc energy    :  -0.1875214359E+02 (   -0.11720E+01/electron)
 K.S. V_so energy    :   0.0000000000E+00 (    0.00000E+00/electron)
 Virial Coefficient  :  -0.8301549679E+00

 Brillouin zone point:      1
    weight=  1.000000
    k     =<   0.000   0.000   0.000> . <b1,b2,b3> 
          =<   0.000   0.000   0.000>

 orbital energies:
     0.4928012E+00 (  13.410eV) occ=1.000
     0.4928008E+00 (  13.410eV) occ=1.000
     0.4928004E+00 (  13.410eV) occ=1.000
     0.2627974E+00 (   7.151eV) occ=1.000
     0.2627943E+00 (   7.151eV) occ=1.000
     0.2627931E+00 (   7.151eV) occ=1.000
     0.2627918E+00 (   7.151eV) occ=1.000
     0.2627908E+00 (   7.151eV) occ=1.000
     0.2627858E+00 (   7.151eV) occ=1.000
     0.2816536E-01 (   0.766eV) occ=1.000
     0.2816294E-01 (   0.766eV) occ=1.000
     0.2815968E-01 (   0.766eV) occ=1.000
     0.2815465E-01 (   0.766eV) occ=1.000
     0.2815171E-01 (   0.766eV) occ=1.000
     0.2814992E-01 (   0.766eV) occ=1.000
    -0.2908517E+00 (  -7.915eV) occ=1.000

 Total BAND energy   :  -0.4506446574E+02


=== Spin Contamination ===
 
 <Sexact^2> =   0.000000000000000E+000
 <S^2>      =   0.000000000000000E+000
 


========================
= Gradient calculation =
========================


Translation force removed: (    0.00000    0.00000    0.00000)


          =============  Ion Gradients =================
 Ion Positions:
        1 C    (    3.38261    3.38261    3.38261 ) - fixed
        2 C    (    0.00000    0.00000    3.38261 ) - fixed
        3 C    (    0.00000    3.38261    0.00000 ) - fixed
        4 C    (    3.38261    0.00000    0.00000 ) - fixed
        5 C    (   -1.69130   -1.69130   -1.69130 ) - fixed
        6 C    (    1.69130    1.69130   -1.69130 ) - fixed
        7 C    (    1.69130   -1.69130    1.69130 ) - fixed
        8 C    (   -1.69130    1.69130    1.69130 ) - fixed
 Ion Forces:
        1 C    (    0.00000    0.00000    0.00000 )
        2 C    (    0.00000    0.00000    0.00000 )
        3 C    (    0.00000    0.00000    0.00000 )
        4 C    (    0.00000    0.00000    0.00000 )
        5 C    (    0.00000    0.00000    0.00000 )
        6 C    (    0.00000    0.00000    0.00000 )
        7 C    (    0.00000    0.00000    0.00000 )
        8 C    (    0.00000    0.00000    0.00000 )
        C.O.M. (    0.00000    0.00000    0.00000 )
          ===============================================
          |F|       =   0.000000E+00
          |F|/nion  =   0.000000E+00
          max|Fatom|=   0.000000E+00 (   0.000eV/Angstrom)


 
 Generated formatted_stress_filename: ./perm/C.cpp2


======================
= Stress calculation =
======================


          ============= ke ==============
      S =  (   -3.40371   -0.00001    0.00000 )
           (   -0.00001   -3.40372    0.00000 )
           (    0.00000    0.00000   -3.40371 )
          ===================================================
          |S|      = 0.58954E+01
          pressure = -.340E+01 au
                   = -.100E+04 Mbar
                   = -.100E+06 GPa
                   = -.988E+09 atm



======================
= Stress calculation =
======================


          ============= coulomb ==============
      S =  (   -0.21337    0.00000    0.00000 )
           (    0.00000   -0.21337    0.00000 )
           (    0.00000    0.00000   -0.21337 )
          ===================================================
          |S|      = 0.36957E+00
          pressure = -.213E+00 au
                   = -.628E+02 Mbar
                   = -.628E+04 GPa
                   = -.620E+08 atm



======================
= Stress calculation =
======================


          ============= local ==============
      S =  (    0.17750    0.00000    0.00000 )
           (    0.00000    0.17750    0.00000 )
           (    0.00000    0.00000    0.17750 )
          ===================================================
          |S|      = 0.30744E+00
          pressure = 0.178E+00 au
                   = 0.522E+02 Mbar
                   = 0.522E+04 GPa
                   = 0.515E+08 atm



======================
= Stress calculation =
======================


          ============= nonlocal ==============
      S =  (    0.22978    0.00000    0.00000 )
           (    0.00000    0.22978    0.00000 )
           (    0.00000    0.00000    0.22978 )
          ===================================================
          |S|      = 0.39799E+00
          pressure = 0.230E+00 au
                   = 0.676E+02 Mbar
                   = 0.676E+04 GPa
                   = 0.667E+08 atm



======================
= Stress calculation =
======================


          ============= xc1 ==============
      S =  (    0.66103    0.00000    0.00000 )
           (    0.00000    0.66103    0.00000 )
           (    0.00000    0.00000    0.66103 )
          ===================================================
          |S|      = 0.11449E+01
          pressure = 0.661E+00 au
                   = 0.194E+03 Mbar
                   = 0.194E+05 GPa
                   = 0.192E+09 atm



======================
= Stress calculation =
======================


          ============= xc ==============
      S =  (    0.66103    0.00000    0.00000 )
           (    0.00000    0.66103    0.00000 )
           (    0.00000    0.00000    0.66103 )
          ===================================================
          |S|      = 0.11449E+01
          pressure = 0.661E+00 au
                   = 0.194E+03 Mbar
                   = 0.194E+05 GPa
                   = 0.192E+09 atm



======================
= Stress calculation =
======================


          ============= ewald ==============
      S =  (    2.51088    0.00000    0.00000 )
           (    0.00000    2.51088    0.00000 )
           (    0.00000    0.00000    2.51088 )
          ===================================================
          |S|      = 0.43490E+01
          pressure = 0.251E+01 au
                   = 0.739E+03 Mbar
                   = 0.739E+05 GPa
                   = 0.729E+09 atm



======================
= Stress calculation =
======================


          ============= total gradient ==============
      S =  (   -0.03789    0.00000    0.00000 )
           (    0.00000   -0.03790    0.00000 )
           (    0.00000    0.00000   -0.03790 )
          ===================================================
          |S|      = 0.65643E-01
          pressure = -.379E-01 au
                   = -.112E+02 Mbar
                   = -.112E+04 GPa
                   = -.110E+08 atm

 
       dE/da     =    -0.03789
       dE/db     =    -0.03790
       dE/dc     =    -0.03790
       dE/dalpha =     0.00000
       dE/dbeta  =    -0.00001
       dE/dgamma =     0.00002
 


======================
= Stress calculation =
======================


          ============= Internal Stress Tensor ==============
      S =  (    0.00083    0.00000    0.00000 )
           (    0.00000    0.00083    0.00000 )
           (    0.00000    0.00000    0.00083 )
          ===================================================
          |S|      = 0.14342E-02
          pressure = 0.828E-03 au
                   = 0.244E+00 Mbar
                   = 0.244E+02 GPa
                   = 0.240E+06 atm

 
 Writing Crystallographic Information File:./perm/diamond111.opt.cif
   - cell not shifted (nwpw:cif_shift_cell .false.)

 output psi filename:./perm/diamond-band.movecs


== Timing ==

cputime in seconds
  prologue    :   0.813030E+00
  main loop   :   0.149376E+02
  epilogue    :   0.588510E-01
  total       :   0.158095E+02
  cputime/step:   0.622401E-01       (     240 evalulations,      88 linesearches)


Time spent doing                        total          step
  FFTs                       :   0.200576E+01  0.835734E-02
  dot products               :   0.409997E+01  0.170832E-01
  geodesic                   :   0.262985E+01  0.109577E-01
  ffm_dgemm                  :   0.000000E+00  0.000000E+00
  fmf_dgemm                  :   0.000000E+00  0.000000E+00
  m_diagonalize              :   0.000000E+00  0.000000E+00
    - m_tredq                :   0.000000E+00  0.000000E+00
    - m_getdiags             :   0.000000E+00  0.000000E+00
    - m_tqliq                :   0.000000E+00  0.000000E+00
    - m_eigsrt               :   0.000000E+00  0.000000E+00
  exchange correlation       :   0.219092E+01  0.912884E-02
  local pseudopotentials     :   0.431776E-02  0.179907E-04
  non-local pseudopotentials :   0.121100E+01  0.504582E-02
  hartree potentials         :   0.218482E-01  0.910342E-04
  ion-ion interaction        :   0.259109E+00  0.107962E-02
  structure factors          :   0.184433E-01  0.768472E-04
  phase factors              :   0.000000E+00  0.000000E+00
  masking and packing        :   0.810551E+00  0.337730E-02
  queue fft                  :   0.627300E+01  0.261375E-01
  queue fft (serial)         :   0.351578E+01  0.146491E-01
  queue fft (message passing):   0.261764E+01  0.109068E-01
  HFX potential              :   0.000000E+00  0.000000E+00
  qmmm LJ                    :   0.000000E+00  0.000000E+00
  qmmm residual Q            :   0.000000E+00  0.000000E+00
 
     >>>  JOB COMPLETED     AT Fri Aug 27 10:37:12 2010  <<<

@ Step       Energy      Delta E   Gmax     Grms     Xrms     Xmax   Walltime
@ ---- ---------------- -------- -------- -------- -------- -------- --------
@    0     -45.06446574  0.0D+00  0.03790  0.01143  0.00000  0.00000     15.8
                                                       ok       ok  

          **********************************************************
          *                                                        *
          *                   NWPW BAND Calculation                *
          *                                                        *
          *  [(bundled Grassman/Stiefel manifold implementation)]  *
          *                                                        *
          *         [ NorthWest Chemistry implementation ]         *
          *                                                        *
          *                version #1.10   01/31/03                *
          *                                                        *
          *  A pseudopotential plane-wave band structure program   *
          *  with Brillouin zone sampling for optimizing crystals, *
          *  slabs, and polymers.  Developed by Eric J. Bylaska    *
          *  , Edoardo Apra, and Patrick Nichols.                  *
          *                                                        *
          **********************************************************
     >>>  JOB STARTED       AT Fri Aug 27 10:37:12 2010  <<<
          ================ input data ========================
 
 pseudopotential is not correctly formatted:
 C.cpp                                             
 
 Generated formatted_filename: ./perm/C.cpp
 Error reading psi - bad unitcell
  - Ignored if the following  parameter is set
  - set nwpw:psi_nolattice .true.
 Error reading psi - bad unitcell
  - Ignored if the following  parameter is set
  - set nwpw:psi_nolattice .true.
 Error reading psi - bad unitcell
  - Ignored if the following  parameter is set
  - set nwpw:psi_nolattice .true.

 input psi filename:./perm/diamond-band.movecs
 
 Fixed ion positions:    1    2    3    4    5    6    7    8
 

 number of processors used:               2
 processor grid           :   2 x   1 x   1
 parallel mapping         :         hilbert

 options:
      boundary conditions  = periodic    (version3)
      electron spin        = restricted
      exchange-correlation = PBE96 (White and Bird) parameterization

 elements involved in the cluster:
      1: C     core charge: 4.0  lmax=2
             comment    : Parameterized (J.Phys.Chem., vol 100, page 6966) Hamman psp
             pseudpotential type            :   0
             highest angular component      :   2
             local potential used           :   2
             number of non-local projections:   4
             cutoff =   0.800   0.850   0.850

 total charge:   0.000

 atomic composition:
     C   :  8

 number of electrons: spin up=   16.00  spin down=   16.00 (fourier space)
 number of orbitals:  spin up=      16  spin down=      16 (fourier space)

 supercell:
      lattice:    a1=<   6.841   0.000   0.000 >
                  a2=<   0.000   6.841   0.000 >
                  a3=<   0.000   0.000   6.841 >
      reciprocal: b1=<   0.918   0.000   0.000 >
                  b2=<   0.000   0.918   0.000 >
                  b3=<   0.000   0.000   0.918 >

      lattice:    a=   6.841    b=   6.841     c=   6.841
              alpha=  90.000 beta=  90.000 gamma=  90.000
      volume :      320.2
      ewald summation: cut radius=    3.00  and  8
                        madelung= 1.76011888

 brillouin zone:
      number of zone points:     1
      weight=   1.000  ks=<   0.000   0.000   0.000 >, k=<   0.000   0.000   0.000>

 computational grids:
      density     cutoff= 70.000  fft=  28x  28x  28(     8925 waves     4463 per task)
      wavefnc   1 cutoff= 35.000  fft=  28x  28x  28(     3119 waves     1560 per task)

 technical parameters:
      time step=      5.80     ficticious mass=  400000.0
      tolerance=.100E-06 (energy)   0.100E-06 (density)
      maximum iterations =    1000 (   10 inner  100 outer )



= energy calculation =


          ======== bundled Grassmann lmbfgs iteration ========
     >>>  ITERATION STARTED AT Fri Aug 27 10:37:12 2010  <<<
    iter.           Energy         DeltaE       DeltaRho 
    ------------------------------------------------------
      10   -0.4507145798E+02   -0.29620E-04    0.85015E-03
      20   -0.4507149412E+02   -0.49038E-07    0.13479E-06
      30   -0.4507149414E+02   -0.18637E-07    0.22348E-10
  *** tolerance ok.    iteration terminated.
     >>>  ITERATION ENDED   AT Fri Aug 27 10:37:16 2010  <<<


          =============  summary of results  =================
 
 number of electrons: spin up=   16.00000  down=   16.00000 (real space)

 total     energy    :  -0.4507149414E+02 (   -0.56339E+01/ion)
 total orbital energy:   0.5401749877E+01 (    0.33761E+00/electron)
 hartree   energy    :   0.4402755989E+01 (    0.27517E+00/electron)
 exc-corr  energy    :  -0.1428607739E+02 (   -0.89288E+00/electron)
 ion-ion   energy    :  -0.5039530049E+02 (   -0.62994E+01/ion)

 K.S. kinetic energy :   0.3408533669E+02 (    0.21303E+01/electron)
 K.S. V_l  energy    :  -0.1786706136E+02 (   -0.11167E+01/electron)
 K.S. V_nl energy    :  -0.1011147577E+01 (   -0.63197E-01/electron)
 K.S. V_Hart energy  :   0.8805511978E+01 (    0.55034E+00/electron)
 K.S. V_xc energy    :  -0.1861088986E+02 (   -0.11632E+01/electron)
 K.S. V_so energy    :   0.0000000000E+00 (    0.00000E+00/electron)
 Virial Coefficient  :  -0.8415227661E+00

 Brillouin zone point:      1
    weight=  1.000000
    k     =<   0.000   0.000   0.000> . <b1,b2,b3> 
          =<   0.000   0.000   0.000>

 orbital energies:
     0.4715606E+00 (  12.832eV) occ=1.000
     0.4715592E+00 (  12.832eV) occ=1.000
     0.4715592E+00 (  12.832eV) occ=1.000
     0.2486395E+00 (   6.766eV) occ=1.000
     0.2486393E+00 (   6.766eV) occ=1.000
     0.2486382E+00 (   6.766eV) occ=1.000
     0.2486377E+00 (   6.766eV) occ=1.000
     0.2486373E+00 (   6.766eV) occ=1.000
     0.2486359E+00 (   6.766eV) occ=1.000
     0.1509177E-01 (   0.411eV) occ=1.000
     0.1509142E-01 (   0.411eV) occ=1.000
     0.1509084E-01 (   0.411eV) occ=1.000
     0.1509020E-01 (   0.411eV) occ=1.000
     0.1508982E-01 (   0.411eV) occ=1.000
     0.1508881E-01 (   0.411eV) occ=1.000
    -0.2961747E+00 (  -8.059eV) occ=1.000

 Total BAND energy   :  -0.4507149414E+02


=== Spin Contamination ===
 
 <Sexact^2> =   0.000000000000000E+000
 <S^2>      =   0.000000000000000E+000
 
 
 Writing Crystallographic Information File:./perm/diamond111.opt.cif
   - cell not shifted (nwpw:cif_shift_cell .false.)

 output psi filename:./perm/diamond-band.movecs


== Timing ==

cputime in seconds
  prologue    :   0.588198E+00
  main loop   :   0.317817E+01
  epilogue    :   0.653501E-01
  total       :   0.383172E+01
  cputime/step:   0.648607E-01       (      49 evalulations,      21 linesearches)


Time spent doing                        total          step
  FFTs                       :   0.467178E+00  0.953425E-02
  dot products               :   0.714157E+00  0.145746E-01
  geodesic                   :   0.508335E+00  0.103742E-01
  ffm_dgemm                  :   0.000000E+00  0.000000E+00
  fmf_dgemm                  :   0.000000E+00  0.000000E+00
  m_diagonalize              :   0.000000E+00  0.000000E+00
    - m_tredq                :   0.000000E+00  0.000000E+00
    - m_getdiags             :   0.000000E+00  0.000000E+00
    - m_tqliq                :   0.000000E+00  0.000000E+00
    - m_eigsrt               :   0.000000E+00  0.000000E+00
  exchange correlation       :   0.505342E+00  0.103131E-01
  local pseudopotentials     :   0.401020E-03  0.818408E-05
  non-local pseudopotentials :   0.277246E+00  0.565808E-02
  hartree potentials         :   0.665021E-02  0.135719E-03
  ion-ion interaction        :   0.569079E-01  0.116139E-02
  structure factors          :   0.463700E-02  0.946327E-04
  phase factors              :   0.000000E+00  0.000000E+00
  masking and packing        :   0.193414E+00  0.394722E-02
  queue fft                  :   0.147390E+01  0.300795E-01
  queue fft (serial)         :   0.823308E+00  0.168022E-01
  queue fft (message passing):   0.619163E+00  0.126360E-01
  HFX potential              :   0.000000E+00  0.000000E+00
  qmmm LJ                    :   0.000000E+00  0.000000E+00
  qmmm residual Q            :   0.000000E+00  0.000000E+00
 
     >>>  JOB COMPLETED     AT Fri Aug 27 10:37:16 2010  <<<
 Line search: 
     step= 1.00 grad=-8.6D-03 hess= 1.6D-03 energy=    -45.071494 mode=downhill
 new step= 2.71                   predicted energy=    -45.076147

          --------
          Step   1
          --------
 
 
                         Geometry "geometry" -> "geometry"
                         ---------------------------------
 
 Output coordinates in angstroms (scale by  1.889725989 to convert to a.u.)
 
  No.       Tag          Charge          X              Y              Z
 ---- ---------------- ---------- -------------- -------------- --------------
    1 C                    6.0000     1.84436197     1.84437592     1.84436926
    2 C                    6.0000    -0.00000187    -0.00000054     1.84437167
    3 C                    6.0000     0.00000554     1.84437092    -0.00000054
    4 C                    6.0000     1.84435830     0.00000554    -0.00000187
    5 C                    6.0000     2.76654295     2.76656388     2.76655389
    6 C                    6.0000     0.92217911     0.92218742     2.76655631
    7 C                    6.0000     0.92218652     2.76655888     0.92218409
    8 C                    6.0000     2.76653929     0.92219350     0.92218276
 
      Lattice Parameters 
      ------------------ 
 
      lattice vectors in angstroms (scale by  1.889725989 to convert to a.u.)
 
      a1=<   3.689   0.000   0.000 >
      a2=<   0.000   3.689   0.000 >
      a3=<   0.000   0.000   3.689 >
      a=       3.689 b=      3.689 c=       3.689
      alpha=  90.000 beta=  90.000 gamma=  90.000
      omega=    50.2
 
      reciprocal lattice vectors in a.u.
 
      b1=<   0.901   0.000   0.000 >
      b2=<   0.000   0.901   0.000 >
      b3=<   0.000   0.000   0.901 >
 
      Atomic Mass 
      ----------- 
 
      C                 12.000000
 
 
          **********************************************************
          *                                                        *
          *                   NWPW BAND Calculation                *
          *                                                        *
          *  [(bundled Grassman/Stiefel manifold implementation)]  *
          *                                                        *
          *         [ NorthWest Chemistry implementation ]         *
          *                                                        *
          *                version #1.10   01/31/03                *
          *                                                        *
          *  A pseudopotential plane-wave band structure program   *
          *  with Brillouin zone sampling for optimizing crystals, *
          *  slabs, and polymers.  Developed by Eric J. Bylaska    *
          *  , Edoardo Apra, and Patrick Nichols.                  *
          *                                                        *
          **********************************************************
     >>>  JOB STARTED       AT Fri Aug 27 10:37:16 2010  <<<
          ================ input data ========================
 
 pseudopotential is not correctly formatted:
 C.cpp                                             
 
 Generated formatted_filename: ./perm/C.cpp
 Error reading psi - bad unitcell
  - Ignored if the following  parameter is set
  - set nwpw:psi_nolattice .true.
 Error reading psi - bad unitcell
  - Ignored if the following  parameter is set
  - set nwpw:psi_nolattice .true.
 Error reading psi - bad unitcell
  - Ignored if the following  parameter is set
  - set nwpw:psi_nolattice .true.

 input psi filename:./perm/diamond-band.movecs
 
 Fixed ion positions:    1    2    3    4    5    6    7    8
 

 number of processors used:               2
 processor grid           :   2 x   1 x   1
 parallel mapping         :         hilbert

 options:
      boundary conditions  = periodic    (version3)
      electron spin        = restricted
      exchange-correlation = PBE96 (White and Bird) parameterization

 elements involved in the cluster:
      1: C     core charge: 4.0  lmax=2
             comment    : Parameterized (J.Phys.Chem., vol 100, page 6966) Hamman psp
             pseudpotential type            :   0
             highest angular component      :   2
             local potential used           :   2
             number of non-local projections:   4
             cutoff =   0.800   0.850   0.850

 total charge:   0.000

 atomic composition:
     C   :  8

 number of electrons: spin up=   16.00  spin down=   16.00 (fourier space)
 number of orbitals:  spin up=      16  spin down=      16 (fourier space)

 supercell:
      lattice:    a1=<   6.971   0.000   0.000 >
                  a2=<   0.000   6.971   0.000 >
                  a3=<   0.000   0.000   6.971 >
      reciprocal: b1=<   0.901   0.000   0.000 >
                  b2=<   0.000   0.901   0.000 >
                  b3=<   0.000   0.000   0.901 >

      lattice:    a=   6.971    b=   6.971     c=   6.971
              alpha=  90.000 beta=  90.000 gamma=  90.000
      volume :      338.7
      ewald summation: cut radius=    3.00  and  8
                        madelung= 1.76011888

 brillouin zone:
      number of zone points:     1
      weight=   1.000  ks=<   0.000   0.000   0.000 >, k=<   0.000   0.000   0.000>

 computational grids:
      density     cutoff= 70.000  fft=  28x  28x  28(     9459 waves     4730 per task)
      wavefnc   1 cutoff= 35.000  fft=  28x  28x  28(     3407 waves     1704 per task)

 technical parameters:
      time step=      5.80     ficticious mass=  400000.0
      tolerance=.100E-06 (energy)   0.100E-06 (density)
      maximum iterations =    1000 (   10 inner  100 outer )



= energy calculation =


          ======== bundled Grassmann lmbfgs iteration ========
     >>>  ITERATION STARTED AT Fri Aug 27 10:37:17 2010  <<<
    iter.           Energy         DeltaE       DeltaRho 
    ------------------------------------------------------
      10   -0.4507720479E+02   -0.95903E-04    0.25008E-02
      20   -0.4507733067E+02   -0.18807E-06    0.50417E-06
      30   -0.4507733076E+02   -0.93587E-07    0.17761E-09
  *** tolerance ok.    iteration terminated.
     >>>  ITERATION ENDED   AT Fri Aug 27 10:37:20 2010  <<<


          =============  summary of results  =================
 
 number of electrons: spin up=   16.00000  down=   16.00000 (real space)

 total     energy    :  -0.4507733076E+02 (   -0.56347E+01/ion)
 total orbital energy:   0.4640261506E+01 (    0.29002E+00/electron)
 hartree   energy    :   0.4527534494E+01 (    0.28297E+00/electron)
 exc-corr  energy    :  -0.1411144172E+02 (   -0.88197E+00/electron)
 ion-ion   energy    :  -0.4945776665E+02 (   -0.61822E+01/ion)

 K.S. kinetic energy :   0.3335925867E+02 (    0.20850E+01/electron)
 K.S. V_l  energy    :  -0.1850786926E+02 (   -0.11567E+01/electron)
 K.S. V_nl energy    :  -0.8870463062E+00 (   -0.55440E-01/electron)
 K.S. V_Hart energy  :   0.9055068988E+01 (    0.56594E+00/electron)
 K.S. V_xc energy    :  -0.1837915059E+02 (   -0.11487E+01/electron)
 K.S. V_so energy    :   0.0000000000E+00 (    0.00000E+00/electron)
 Virial Coefficient  :  -0.8609003410E+00

 Brillouin zone point:      1
    weight=  1.000000
    k     =<   0.000   0.000   0.000> . <b1,b2,b3> 
          =<   0.000   0.000   0.000>

 orbital energies:
     0.4363374E+00 (  11.873eV) occ=1.000
     0.4363339E+00 (  11.873eV) occ=1.000
     0.4363337E+00 (  11.873eV) occ=1.000
     0.2256040E+00 (   6.139eV) occ=1.000
     0.2256026E+00 (   6.139eV) occ=1.000
     0.2256010E+00 (   6.139eV) occ=1.000
     0.2256000E+00 (   6.139eV) occ=1.000
     0.2255989E+00 (   6.139eV) occ=1.000
     0.2255980E+00 (   6.139eV) occ=1.000
    -0.6283062E-02 (  -0.171eV) occ=1.000
    -0.6283316E-02 (  -0.171eV) occ=1.000
    -0.6285604E-02 (  -0.171eV) occ=1.000
    -0.6286263E-02 (  -0.171eV) occ=1.000
    -0.6287115E-02 (  -0.171eV) occ=1.000
    -0.6288193E-02 (  -0.171eV) occ=1.000
    -0.3047652E+00 (  -8.293eV) occ=1.000

 Total BAND energy   :  -0.4507733076E+02


=== Spin Contamination ===
 
 <Sexact^2> =   0.000000000000000E+000
 <S^2>      =   0.000000000000000E+000
 


========================
= Gradient calculation =
========================


Translation force removed: (    0.00000    0.00000    0.00000)


          =============  Ion Gradients =================
 Ion Positions:
        1 C    (    3.48534    3.48537    3.48535 ) - fixed
        2 C    (    0.00000    0.00000    3.48536 ) - fixed
        3 C    (    0.00001    3.48536    0.00000 ) - fixed
        4 C    (    3.48533    0.00001    0.00000 ) - fixed
        5 C    (   -1.74267   -1.74268   -1.74268 ) - fixed
        6 C    (    1.74267    1.74268   -1.74268 ) - fixed
        7 C    (    1.74266   -1.74267    1.74268 ) - fixed
        8 C    (   -1.74266    1.74267    1.74268 ) - fixed
 Ion Forces:
        1 C    (    0.00000    0.00000    0.00000 )
        2 C    (    0.00000    0.00000    0.00000 )
        3 C    (    0.00000    0.00000    0.00000 )
        4 C    (    0.00000    0.00000    0.00000 )
        5 C    (    0.00000    0.00000    0.00000 )
        6 C    (    0.00000    0.00000    0.00000 )
        7 C    (    0.00000    0.00000    0.00000 )
        8 C    (    0.00000    0.00000    0.00000 )
        C.O.M. (    0.00000    0.00000    0.00000 )
          ===============================================
          |F|       =   0.000000E+00
          |F|/nion  =   0.000000E+00
          max|Fatom|=   0.000000E+00 (   0.000eV/Angstrom)


 pseudopotential is not correctly formatted:
 C.cpp2                                            
 
 Generated formatted_stress_filename: ./perm/C.cpp2


======================
= Stress calculation =
======================


          ============= ke ==============
      S =  (   -3.19045    0.00001    0.00000 )
           (    0.00001   -3.19042    0.00000 )
           (    0.00000    0.00000   -3.19041 )
          ===================================================
          |S|      = 0.55260E+01
          pressure = -.319E+01 au
                   = -.939E+03 Mbar
                   = -.939E+05 GPa
                   = -.926E+09 atm



======================
= Stress calculation =
======================


          ============= coulomb ==============
      S =  (   -0.21650    0.00001    0.00000 )
           (    0.00001   -0.21650    0.00000 )
           (    0.00000    0.00000   -0.21650 )
          ===================================================
          |S|      = 0.37499E+00
          pressure = -.217E+00 au
                   = -.637E+02 Mbar
                   = -.637E+04 GPa
                   = -.629E+08 atm



======================
= Stress calculation =
======================


          ============= local ==============
      S =  (    0.24052   -0.00002    0.00001 )
           (   -0.00002    0.24055    0.00000 )
           (    0.00001    0.00000    0.24055 )
          ===================================================
          |S|      = 0.41663E+00
          pressure = 0.241E+00 au
                   = 0.708E+02 Mbar
                   = 0.708E+04 GPa
                   = 0.698E+08 atm



======================
= Stress calculation =
======================


          ============= nonlocal ==============
      S =  (    0.18810    0.00000    0.00000 )
           (    0.00000    0.18810    0.00000 )
           (    0.00000    0.00000    0.18810 )
          ===================================================
          |S|      = 0.32580E+00
          pressure = 0.188E+00 au
                   = 0.553E+02 Mbar
                   = 0.553E+04 GPa
                   = 0.546E+08 atm



======================
= Stress calculation =
======================


          ============= xc1 ==============
      S =  (    0.62890    0.00000    0.00000 )
           (    0.00000    0.62889    0.00000 )
           (    0.00000    0.00000    0.62889 )
          ===================================================
          |S|      = 0.10893E+01
          pressure = 0.629E+00 au
                   = 0.185E+03 Mbar
                   = 0.185E+05 GPa
                   = 0.183E+09 atm



======================
= Stress calculation =
======================


          ============= xc ==============
      S =  (    0.62890    0.00000    0.00000 )
           (    0.00000    0.62889    0.00000 )
           (    0.00000    0.00000    0.62889 )
          ===================================================
          |S|      = 0.10893E+01
          pressure = 0.629E+00 au
                   = 0.185E+03 Mbar
                   = 0.185E+05 GPa
                   = 0.183E+09 atm



======================
= Stress calculation =
======================


          ============= ewald ==============
      S =  (    2.36506    0.00001    0.00000 )
           (    0.00001    2.36502    0.00000 )
           (    0.00000    0.00000    2.36502 )
          ===================================================
          |S|      = 0.40964E+01
          pressure = 0.237E+01 au
                   = 0.696E+03 Mbar
                   = 0.696E+05 GPa
                   = 0.687E+09 atm



======================
= Stress calculation =
======================


          ============= total gradient ==============
      S =  (    0.01563    0.00000    0.00000 )
           (    0.00000    0.01564    0.00000 )
           (    0.00000    0.00000    0.01564 )
          ===================================================
          |S|      = 0.27081E-01
          pressure = 0.156E-01 au
                   = 0.460E+01 Mbar
                   = 0.460E+03 GPa
                   = 0.454E+07 atm

 
       dE/da     =     0.01563
       dE/db     =     0.01564
       dE/dc     =     0.01564
       dE/dalpha =     0.00000
       dE/dbeta  =     0.00001
       dE/dgamma =    -0.00003
 


======================
= Stress calculation =
======================


          ============= Internal Stress Tensor ==============
      S =  (   -0.00032    0.00000    0.00000 )
           (    0.00000   -0.00032    0.00000 )
           (    0.00000    0.00000   -0.00032 )
          ===================================================
          |S|      = 0.55733E-03
          pressure = -.322E-03 au
                   = -.947E-01 Mbar
                   = -.947E+01 GPa
                   = -.934E+05 atm

 
 Writing Crystallographic Information File:./perm/diamond111.opt.cif
   - cell not shifted (nwpw:cif_shift_cell .false.)

 output psi filename:./perm/diamond-band.movecs


== Timing ==

cputime in seconds
  prologue    :   0.110222E+01
  main loop   :   0.409672E+01
  epilogue    :   0.656800E-01
  total       :   0.526462E+01
  cputime/step:   0.836065E-01       (      49 evalulations,      21 linesearches)


Time spent doing                        total          step
  FFTs                       :   0.474391E+00  0.968146E-02
  dot products               :   0.908533E+00  0.185415E-01
  geodesic                   :   0.608023E+00  0.124086E-01
  ffm_dgemm                  :   0.000000E+00  0.000000E+00
  fmf_dgemm                  :   0.000000E+00  0.000000E+00
  m_diagonalize              :   0.000000E+00  0.000000E+00
    - m_tredq                :   0.000000E+00  0.000000E+00
    - m_getdiags             :   0.000000E+00  0.000000E+00
    - m_tqliq                :   0.000000E+00  0.000000E+00
    - m_eigsrt               :   0.000000E+00  0.000000E+00
  exchange correlation       :   0.516220E+00  0.105351E-01
  local pseudopotentials     :   0.530505E-02  0.108266E-03
  non-local pseudopotentials :   0.358545E+00  0.731725E-02
  hartree potentials         :   0.665498E-02  0.135816E-03
  ion-ion interaction        :   0.182610E+00  0.372673E-02
  structure factors          :   0.547574E-02  0.111750E-03
  phase factors              :   0.000000E+00  0.000000E+00
  masking and packing        :   0.198347E+00  0.404789E-02
  queue fft                  :   0.148453E+01  0.302965E-01
  queue fft (serial)         :   0.837220E+00  0.170861E-01
  queue fft (message passing):   0.614343E+00  0.125376E-01
  HFX potential              :   0.000000E+00  0.000000E+00
  qmmm LJ                    :   0.000000E+00  0.000000E+00
  qmmm residual Q            :   0.000000E+00  0.000000E+00
 
     >>>  JOB COMPLETED     AT Fri Aug 27 10:37:21 2010  <<<

  Step       Energy      Delta E   Gmax     Grms     Xrms     Xmax   Walltime
  ---- ---------------- -------- -------- -------- -------- -------- --------
@    1     -45.07733076 -1.3D-02  0.01564  0.00471  0.06195  0.20550     24.9
                                                                    

          **********************************************************
          *                                                        *
          *                   NWPW BAND Calculation                *
          *                                                        *
          *  [(bundled Grassman/Stiefel manifold implementation)]  *
          *                                                        *
          *         [ NorthWest Chemistry implementation ]         *
          *                                                        *
          *                version #1.10   01/31/03                *
          *                                                        *
          *  A pseudopotential plane-wave band structure program   *
          *  with Brillouin zone sampling for optimizing crystals, *
          *  slabs, and polymers.  Developed by Eric J. Bylaska    *
          *  , Edoardo Apra, and Patrick Nichols.                  *
          *                                                        *
          **********************************************************
     >>>  JOB STARTED       AT Fri Aug 27 10:37:21 2010  <<<
          ================ input data ========================
 
 pseudopotential is not correctly formatted:
 C.cpp                                             
 
 Generated formatted_filename: ./perm/C.cpp
 Error reading psi - bad unitcell
  - Ignored if the following  parameter is set
  - set nwpw:psi_nolattice .true.
 Error reading psi - bad unitcell
  - Ignored if the following  parameter is set
  - set nwpw:psi_nolattice .true.
 Error reading psi - bad unitcell
  - Ignored if the following  parameter is set
  - set nwpw:psi_nolattice .true.

 input psi filename:./perm/diamond-band.movecs
Warning - Orthogonalization performed, spin,zone: 1   1
        - error(before)=  0.304633E-04 (  0.160000E+02)
        - error(after)=   0.177636E-14 (  0.160000E+02)
 
 Fixed ion positions:    1    2    3    4    5    6    7    8
 

 number of processors used:               2
 processor grid           :   2 x   1 x   1
 parallel mapping         :         hilbert

 options:
      boundary conditions  = periodic    (version3)
      electron spin        = restricted
      exchange-correlation = PBE96 (White and Bird) parameterization

 elements involved in the cluster:
      1: C     core charge: 4.0  lmax=2
             comment    : Parameterized (J.Phys.Chem., vol 100, page 6966) Hamman psp
             pseudpotential type            :   0
             highest angular component      :   2
             local potential used           :   2
             number of non-local projections:   4
             cutoff =   0.800   0.850   0.850

 total charge:   0.000

 atomic composition:
     C   :  8

 number of electrons: spin up=   16.00  spin down=   16.00 (fourier space)
 number of orbitals:  spin up=      16  spin down=      16 (fourier space)

 supercell:
      lattice:    a1=<   6.911   0.000   0.000 >
                  a2=<   0.000   6.911   0.000 >
                  a3=<   0.000   0.000   6.911 >
      reciprocal: b1=<   0.909   0.000   0.000 >
                  b2=<   0.000   0.909   0.000 >
                  b3=<   0.000   0.000   0.909 >

      lattice:    a=   6.911    b=   6.911     c=   6.911
              alpha=  90.000 beta=  90.000 gamma=  90.000
      volume :      330.0
      ewald summation: cut radius=    3.00  and  8
                        madelung= 1.76011888

 brillouin zone:
      number of zone points:     1
      weight=   1.000  ks=<   0.000   0.000   0.000 >, k=<   0.000   0.000   0.000>

 computational grids:
      density     cutoff= 70.000  fft=  28x  28x  28(     9171 waves     4586 per task)
      wavefnc   1 cutoff= 35.000  fft=  28x  28x  28(     3239 waves     1620 per task)

 technical parameters:
      time step=      5.80     ficticious mass=  400000.0
      tolerance=.100E-06 (energy)   0.100E-06 (density)
      maximum iterations =    1000 (   10 inner  100 outer )



= energy calculation =


          ======== bundled Grassmann lmbfgs iteration ========
     >>>  ITERATION STARTED AT Fri Aug 27 10:37:22 2010  <<<
    iter.           Energy         DeltaE       DeltaRho 
    ------------------------------------------------------
      10   -0.4507685266E+02   -0.15529E-04    0.53627E-03
      20   -0.4507687342E+02   -0.59521E-07    0.70482E-07
  *** tolerance ok.    iteration terminated.
     >>>  ITERATION ENDED   AT Fri Aug 27 10:37:24 2010  <<<


          =============  summary of results  =================
 
 number of electrons: spin up=   16.00000  down=   16.00000 (real space)

 total     energy    :  -0.4507687342E+02 (   -0.56346E+01/ion)
 total orbital energy:   0.4986324406E+01 (    0.31165E+00/electron)
 hartree   energy    :   0.4469752257E+01 (    0.27936E+00/electron)
 exc-corr  energy    :  -0.1419135921E+02 (   -0.88696E+00/electron)
 ion-ion   energy    :  -0.4988725627E+02 (   -0.62359E+01/ion)

 K.S. kinetic energy :   0.3368968800E+02 (    0.21056E+01/electron)
 K.S. V_l  energy    :  -0.1821352978E+02 (   -0.11383E+01/electron)
 K.S. V_nl energy    :  -0.9441684123E+00 (   -0.59011E-01/electron)
 K.S. V_Hart energy  :   0.8939504514E+01 (    0.55872E+00/electron)
 K.S. V_xc energy    :  -0.1848516992E+02 (   -0.11553E+01/electron)
 K.S. V_so energy    :   0.0000000000E+00 (    0.00000E+00/electron)
 Virial Coefficient  :  -0.8519925621E+00

 Brillouin zone point:      1
    weight=  1.000000
    k     =<   0.000   0.000   0.000> . <b1,b2,b3> 
          =<   0.000   0.000   0.000>

 orbital energies:
     0.4520843E+00 (  12.302eV) occ=1.000
     0.4520827E+00 (  12.302eV) occ=1.000
     0.4520826E+00 (  12.302eV) occ=1.000
     0.2361382E+00 (   6.426eV) occ=1.000
     0.2361375E+00 (   6.426eV) occ=1.000
     0.2361367E+00 (   6.426eV) occ=1.000
     0.2361361E+00 (   6.426eV) occ=1.000
     0.2361357E+00 (   6.426eV) occ=1.000
     0.2361353E+00 (   6.426eV) occ=1.000
     0.3497771E-02 (   0.095eV) occ=1.000
     0.3497639E-02 (   0.095eV) occ=1.000
     0.3496591E-02 (   0.095eV) occ=1.000
     0.3496258E-02 (   0.095eV) occ=1.000
     0.3495821E-02 (   0.095eV) occ=1.000
     0.3495287E-02 (   0.095eV) occ=1.000
    -0.3008862E+00 (  -8.188eV) occ=1.000

 Total BAND energy   :  -0.4507687342E+02


=== Spin Contamination ===
 
 <Sexact^2> =   0.000000000000000E+000
 <S^2>      =   0.000000000000000E+000
 
 
 Writing Crystallographic Information File:./perm/diamond111.opt.cif
   - cell not shifted (nwpw:cif_shift_cell .false.)

 output psi filename:./perm/diamond-band.movecs


== Timing ==

cputime in seconds
  prologue    :   0.745488E+00
  main loop   :   0.271657E+01
  epilogue    :   0.653861E-01
  total       :   0.352745E+01
  cputime/step:   0.646803E-01       (      42 evalulations,      19 linesearches)


Time spent doing                        total          step
  FFTs                       :   0.400177E+00  0.952801E-02
  dot products               :   0.593423E+00  0.141291E-01
  geodesic                   :   0.425313E+00  0.101265E-01
  ffm_dgemm                  :   0.000000E+00  0.000000E+00
  fmf_dgemm                  :   0.000000E+00  0.000000E+00
  m_diagonalize              :   0.000000E+00  0.000000E+00
    - m_tredq                :   0.000000E+00  0.000000E+00
    - m_getdiags             :   0.000000E+00  0.000000E+00
    - m_tqliq                :   0.000000E+00  0.000000E+00
    - m_eigsrt               :   0.000000E+00  0.000000E+00
  exchange correlation       :   0.434260E+00  0.103395E-01
  local pseudopotentials     :   0.569105E-03  0.135501E-04
  non-local pseudopotentials :   0.240262E+00  0.572053E-02
  hartree potentials         :   0.593591E-02  0.141331E-03
  ion-ion interaction        :   0.379150E-01  0.902738E-03
  structure factors          :   0.414348E-02  0.986542E-04
  phase factors              :   0.000000E+00  0.000000E+00
  masking and packing        :   0.165459E+00  0.393949E-02
  queue fft                  :   0.125878E+01  0.299710E-01
  queue fft (serial)         :   0.707928E+00  0.168554E-01
  queue fft (message passing):   0.523788E+00  0.124711E-01
  HFX potential              :   0.000000E+00  0.000000E+00
  qmmm LJ                    :   0.000000E+00  0.000000E+00
  qmmm residual Q            :   0.000000E+00  0.000000E+00
 
     >>>  JOB COMPLETED     AT Fri Aug 27 10:37:25 2010  <<<
 Line search: 
     step= 1.00 grad=-2.8D-03 hess= 3.3D-03 energy=    -45.076873 mode=bracket 
 new step= 0.43                   predicted energy=    -45.077936

          --------
          Step   2
          --------
 
 
                         Geometry "geometry" -> "geometry"
                         ---------------------------------
 
 Output coordinates in angstroms (scale by  1.889725989 to convert to a.u.)
 
  No.       Tag          Charge          X              Y              Z
 ---- ---------------- ---------- -------------- -------------- --------------
    1 C                    6.0000     1.83753357     1.83754430     1.83753904
    2 C                    6.0000    -0.00000148    -0.00000043     1.83754094
    3 C                    6.0000     0.00000437     1.83754036    -0.00000043
    4 C                    6.0000     1.83753068     0.00000437    -0.00000148
    5 C                    6.0000     2.75630036     2.75631646     2.75630856
    6 C                    6.0000     0.91876531     0.91877173     2.75631046
    7 C                    6.0000     0.91877115     2.75631252     0.91876909
    8 C                    6.0000     2.75629747     0.91877652     0.91876804
 
      Lattice Parameters 
      ------------------ 
 
      lattice vectors in angstroms (scale by  1.889725989 to convert to a.u.)
 
      a1=<   3.675   0.000   0.000 >
      a2=<   0.000   3.675   0.000 >
      a3=<   0.000   0.000   3.675 >
      a=       3.675 b=      3.675 c=       3.675
      alpha=  90.000 beta=  90.000 gamma=  90.000
      omega=    49.6
 
      reciprocal lattice vectors in a.u.
 
      b1=<   0.905   0.000   0.000 >
      b2=<   0.000   0.905   0.000 >
      b3=<   0.000   0.000   0.905 >
 
      Atomic Mass 
      ----------- 
 
      C                 12.000000
 
 
          **********************************************************
          *                                                        *
          *                   NWPW BAND Calculation                *
          *                                                        *
          *  [(bundled Grassman/Stiefel manifold implementation)]  *
          *                                                        *
          *         [ NorthWest Chemistry implementation ]         *
          *                                                        *
          *                version #1.10   01/31/03                *
          *                                                        *
          *  A pseudopotential plane-wave band structure program   *
          *  with Brillouin zone sampling for optimizing crystals, *
          *  slabs, and polymers.  Developed by Eric J. Bylaska    *
          *  , Edoardo Apra, and Patrick Nichols.                  *
          *                                                        *
          **********************************************************
     >>>  JOB STARTED       AT Fri Aug 27 10:37:25 2010  <<<
          ================ input data ========================
 
 pseudopotential is not correctly formatted:
 C.cpp                                             
 
 Generated formatted_filename: ./perm/C.cpp
 Error reading psi - bad unitcell
  - Ignored if the following  parameter is set
  - set nwpw:psi_nolattice .true.
 Error reading psi - bad unitcell
  - Ignored if the following  parameter is set
  - set nwpw:psi_nolattice .true.
 Error reading psi - bad unitcell
  - Ignored if the following  parameter is set
  - set nwpw:psi_nolattice .true.

 input psi filename:./perm/diamond-band.movecs
 
 Fixed ion positions:    1    2    3    4    5    6    7    8
 

 number of processors used:               2
 processor grid           :   2 x   1 x   1
 parallel mapping         :         hilbert

 options:
      boundary conditions  = periodic    (version3)
      electron spin        = restricted
      exchange-correlation = PBE96 (White and Bird) parameterization

 elements involved in the cluster:
      1: C     core charge: 4.0  lmax=2
             comment    : Parameterized (J.Phys.Chem., vol 100, page 6966) Hamman psp
             pseudpotential type            :   0
             highest angular component      :   2
             local potential used           :   2
             number of non-local projections:   4
             cutoff =   0.800   0.850   0.850

 total charge:   0.000

 atomic composition:
     C   :  8

 number of electrons: spin up=   16.00  spin down=   16.00 (fourier space)
 number of orbitals:  spin up=      16  spin down=      16 (fourier space)

 supercell:
      lattice:    a1=<   6.945   0.000   0.000 >
                  a2=<   0.000   6.945   0.000 >
                  a3=<   0.000   0.000   6.945 >
      reciprocal: b1=<   0.905   0.000   0.000 >
                  b2=<   0.000   0.905   0.000 >
                  b3=<   0.000   0.000   0.905 >

      lattice:    a=   6.945    b=   6.945     c=   6.945
              alpha=  90.000 beta=  90.000 gamma=  90.000
      volume :      335.0
      ewald summation: cut radius=    3.00  and  8
                        madelung= 1.76011888

 brillouin zone:
      number of zone points:     1
      weight=   1.000  ks=<   0.000   0.000   0.000 >, k=<   0.000   0.000   0.000>

 computational grids:
      density     cutoff= 70.000  fft=  28x  28x  28(     9435 waves     4718 per task)
      wavefnc   1 cutoff= 35.000  fft=  28x  28x  28(     3287 waves     1644 per task)

 technical parameters:
      time step=      5.80     ficticious mass=  400000.0
      tolerance=.100E-06 (energy)   0.100E-06 (density)
      maximum iterations =    1000 (   10 inner  100 outer )



= energy calculation =


          ======== bundled Grassmann lmbfgs iteration ========
     >>>  ITERATION STARTED AT Fri Aug 27 10:37:25 2010  <<<
    iter.           Energy         DeltaE       DeltaRho 
    ------------------------------------------------------
      10   -0.4507683127E+02   -0.64686E-05    0.17124E-03
      20   -0.4507683897E+02   -0.83256E-07    0.24930E-07
  *** tolerance ok.    iteration terminated.
     >>>  ITERATION ENDED   AT Fri Aug 27 10:37:28 2010  <<<


          =============  summary of results  =================
 
 number of electrons: spin up=   16.00000  down=   16.00000 (real space)

 total     energy    :  -0.4507683897E+02 (   -0.56346E+01/ion)
 total orbital energy:   0.4788391002E+01 (    0.29927E+00/electron)
 hartree   energy    :   0.4502486436E+01 (    0.28141E+00/electron)
 exc-corr  energy    :  -0.1414547538E+02 (   -0.88409E+00/electron)
 ion-ion   energy    :  -0.4964158798E+02 (   -0.62052E+01/ion)

 K.S. kinetic energy :   0.3349880362E+02 (    0.20937E+01/electron)
 K.S. V_l  energy    :  -0.1838036704E+02 (   -0.11488E+01/electron)
 K.S. V_nl energy    :  -0.9106986132E+00 (   -0.56919E-01/electron)
 K.S. V_Hart energy  :   0.9004972872E+01 (    0.56281E+00/electron)
 K.S. V_xc energy    :  -0.1842431983E+02 (   -0.11515E+01/electron)
 K.S. V_so energy    :   0.0000000000E+00 (    0.00000E+00/electron)
 Virial Coefficient  :  -0.8570578503E+00

 Brillouin zone point:      1
    weight=  1.000000
    k     =<   0.000   0.000   0.000> . <b1,b2,b3> 
          =<   0.000   0.000   0.000>

 orbital energies:
     0.4430500E+00 (  12.056eV) occ=1.000
     0.4430474E+00 (  12.056eV) occ=1.000
     0.4430472E+00 (  12.056eV) occ=1.000
     0.2301388E+00 (   6.262eV) occ=1.000
     0.2301376E+00 (   6.262eV) occ=1.000
     0.2301365E+00 (   6.262eV) occ=1.000
     0.2301356E+00 (   6.262eV) occ=1.000
     0.2301346E+00 (   6.262eV) occ=1.000
     0.2301343E+00 (   6.262eV) occ=1.000
    -0.2105931E-02 (  -0.057eV) occ=1.000
    -0.2106125E-02 (  -0.057eV) occ=1.000
    -0.2107931E-02 (  -0.057eV) occ=1.000
    -0.2108422E-02 (  -0.057eV) occ=1.000
    -0.2109090E-02 (  -0.057eV) occ=1.000
    -0.2109907E-02 (  -0.057eV) occ=1.000
    -0.3031193E+00 (  -8.248eV) occ=1.000

 Total BAND energy   :  -0.4507683897E+02


=== Spin Contamination ===
 
 <Sexact^2> =   0.000000000000000E+000
 <S^2>      =   0.000000000000000E+000
 


========================
= Gradient calculation =
========================


Translation force removed: (    0.00000    0.00000    0.00000)


          =============  Ion Gradients =================
 Ion Positions:
        1 C    (    3.47243    3.47246    3.47245 ) - fixed
        2 C    (    0.00000    0.00000    3.47245 ) - fixed
        3 C    (    0.00001    3.47245    0.00000 ) - fixed
        4 C    (    3.47243    0.00001    0.00000 ) - fixed
        5 C    (   -1.73622   -1.73623   -1.73622 ) - fixed
        6 C    (    1.73622    1.73623   -1.73623 ) - fixed
        7 C    (    1.73621   -1.73622    1.73622 ) - fixed
        8 C    (   -1.73621    1.73622    1.73623 ) - fixed
 Ion Forces:
        1 C    (    0.00000    0.00000    0.00000 )
        2 C    (    0.00000    0.00000    0.00000 )
        3 C    (    0.00000    0.00000    0.00000 )
        4 C    (    0.00000    0.00000    0.00000 )
        5 C    (    0.00000    0.00000    0.00000 )
        6 C    (    0.00000    0.00000    0.00000 )
        7 C    (    0.00000    0.00000    0.00000 )
        8 C    (    0.00000    0.00000    0.00000 )
        C.O.M. (    0.00000    0.00000    0.00000 )
          ===============================================
          |F|       =   0.000000E+00
          |F|/nion  =   0.000000E+00
          max|Fatom|=   0.000000E+00 (   0.000eV/Angstrom)


 pseudopotential is not correctly formatted:
 C.cpp2                                            
 
 Generated formatted_stress_filename: ./perm/C.cpp2


======================
= Stress calculation =
======================


          ============= ke ==============
      S =  (   -3.21570    0.00001    0.00000 )
           (    0.00001   -3.21567    0.00000 )
           (    0.00000    0.00000   -3.21567 )
          ===================================================
          |S|      = 0.55697E+01
          pressure = -.322E+01 au
                   = -.946E+03 Mbar
                   = -.946E+05 GPa
                   = -.934E+09 atm



======================
= Stress calculation =
======================


          ============= coulomb ==============
      S =  (   -0.21610    0.00000    0.00000 )
           (    0.00000   -0.21611    0.00000 )
           (    0.00000    0.00000   -0.21611 )
          ===================================================
          |S|      = 0.37431E+00
          pressure = -.216E+00 au
                   = -.636E+02 Mbar
                   = -.636E+04 GPa
                   = -.627E+08 atm



======================
= Stress calculation =
======================


          ============= local ==============
      S =  (    0.23305   -0.00002    0.00001 )
           (   -0.00002    0.23307    0.00000 )
           (    0.00001    0.00000    0.23307 )
          ===================================================
          |S|      = 0.40369E+00
          pressure = 0.233E+00 au
                   = 0.686E+02 Mbar
                   = 0.686E+04 GPa
                   = 0.677E+08 atm



======================
= Stress calculation =
======================


          ============= nonlocal ==============
      S =  (    0.19308    0.00000    0.00000 )
           (    0.00000    0.19308    0.00000 )
           (    0.00000    0.00000    0.19308 )
          ===================================================
          |S|      = 0.33442E+00
          pressure = 0.193E+00 au
                   = 0.568E+02 Mbar
                   = 0.568E+04 GPa
                   = 0.561E+08 atm



======================
= Stress calculation =
======================


          ============= xc1 ==============
      S =  (    0.63277    0.00000    0.00000 )
           (    0.00000    0.63277    0.00000 )
           (    0.00000    0.00000    0.63277 )
          ===================================================
          |S|      = 0.10960E+01
          pressure = 0.633E+00 au
                   = 0.186E+03 Mbar
                   = 0.186E+05 GPa
                   = 0.184E+09 atm



======================
= Stress calculation =
======================


          ============= xc ==============
      S =  (    0.63277    0.00000    0.00000 )
           (    0.00000    0.63277    0.00000 )
           (    0.00000    0.00000    0.63277 )
          ===================================================
          |S|      = 0.10960E+01
          pressure = 0.633E+00 au
                   = 0.186E+03 Mbar
                   = 0.186E+05 GPa
                   = 0.184E+09 atm



======================
= Stress calculation =
======================


          ============= ewald ==============
      S =  (    2.38267    0.00001    0.00000 )
           (    0.00001    2.38264    0.00000 )
           (    0.00000    0.00000    2.38263 )
          ===================================================
          |S|      = 0.41269E+01
          pressure = 0.238E+01 au
                   = 0.701E+03 Mbar
                   = 0.701E+05 GPa
                   = 0.692E+09 atm



======================
= Stress calculation =
======================


          ============= total gradient ==============
      S =  (    0.00977    0.00000    0.00000 )
           (    0.00000    0.00978    0.00000 )
           (    0.00000    0.00000    0.00978 )
          ===================================================
          |S|      = 0.16928E-01
          pressure = 0.977E-02 au
                   = 0.288E+01 Mbar
                   = 0.288E+03 GPa
                   = 0.284E+07 atm

 
       dE/da     =     0.00977
       dE/db     =     0.00978
       dE/dc     =     0.00978
       dE/dalpha =     0.00000
       dE/dbeta  =     0.00001
       dE/dgamma =    -0.00002
 


======================
= Stress calculation =
======================


          ============= Internal Stress Tensor ==============
      S =  (   -0.00020    0.00000    0.00000 )
           (    0.00000   -0.00020    0.00000 )
           (    0.00000    0.00000   -0.00020 )
          ===================================================
          |S|      = 0.35098E-03
          pressure = -.203E-03 au
                   = -.596E-01 Mbar
                   = -.596E+01 GPa
                   = -.588E+05 atm

 
 Writing Crystallographic Information File:./perm/diamond111.opt.cif
   - cell not shifted (nwpw:cif_shift_cell .false.)

 output psi filename:./perm/diamond-band.movecs


== Timing ==

cputime in seconds
  prologue    :   0.933206E+00
  main loop   :   0.330683E+01
  epilogue    :   0.657821E-01
  total       :   0.430581E+01
  cputime/step:   0.847904E-01       (      39 evalulations,      17 linesearches)


Time spent doing                        total          step
  FFTs                       :   0.378199E+00  0.969740E-02
[...]
    -0.6786841E-01 (  -1.847eV) occ=1.000
    -0.2666984E+00 (  -7.257eV) occ=1.000

 Brillouin zone point:     60
    weight=  0.016000
    k     =<   0.400  -0.200   0.000> . <b1,b2,b3> 
          =<   0.376  -0.188   0.000>

 orbital energies:
     0.4323614E+00 (  11.765eV) occ=1.000
     0.3456519E+00 (   9.406eV) occ=1.000
     0.3415308E+00 (   9.294eV) occ=1.000
     0.3174080E+00 (   8.637eV) occ=1.000
     0.2864462E+00 (   7.795eV) occ=1.000
     0.2864012E+00 (   7.793eV) occ=1.000
     0.2646970E+00 (   7.203eV) occ=1.000
     0.2429859E+00 (   6.612eV) occ=1.000
     0.1929138E+00 (   5.249eV) occ=1.000
     0.1552269E+00 (   4.224eV) occ=1.000
     0.1291385E+00 (   3.514eV) occ=1.000
     0.8890993E-01 (   2.419eV) occ=1.000
     0.1034097E-01 (   0.281eV) occ=1.000
    -0.3419592E-01 (  -0.931eV) occ=1.000
    -0.1585060E+00 (  -4.313eV) occ=1.000
    -0.2256522E+00 (  -6.140eV) occ=1.000

 Brillouin zone point:     61
    weight=  0.016000
    k     =<   0.400   0.000   0.000> . <b1,b2,b3> 
          =<   0.376   0.000   0.000>

 orbital energies:
     0.3908430E+00 (  10.635eV) occ=1.000
     0.3823976E+00 (  10.406eV) occ=1.000
     0.3823922E+00 (  10.406eV) occ=1.000
     0.3203666E+00 (   8.718eV) occ=1.000
     0.3203606E+00 (   8.718eV) occ=1.000
     0.2806524E+00 (   7.637eV) occ=1.000
     0.1994715E+00 (   5.428eV) occ=1.000
     0.1994700E+00 (   5.428eV) occ=1.000
     0.1994687E+00 (   5.428eV) occ=1.000
     0.1994673E+00 (   5.428eV) occ=1.000
     0.5869698E-01 (   1.597eV) occ=1.000
     0.5869420E-01 (   1.597eV) occ=1.000
     0.5869155E-01 (   1.597eV) occ=1.000
     0.5868875E-01 (   1.597eV) occ=1.000
    -0.1715891E+00 (  -4.669eV) occ=1.000
    -0.2392271E+00 (  -6.510eV) occ=1.000

 Brillouin zone point:     62
    weight=  0.016000
    k     =<   0.200   0.000   0.000> . <b1,b2,b3> 
          =<   0.188   0.000   0.000>

 orbital energies:
     0.4714479E+00 (  12.829eV) occ=1.000
     0.4570208E+00 (  12.436eV) occ=1.000
     0.4570158E+00 (  12.436eV) occ=1.000
     0.2809438E+00 (   7.645eV) occ=1.000
     0.2809374E+00 (   7.645eV) occ=1.000
     0.2413447E+00 (   6.567eV) occ=1.000
     0.2413409E+00 (   6.567eV) occ=1.000
     0.2413395E+00 (   6.567eV) occ=1.000
     0.2413358E+00 (   6.567eV) occ=1.000
     0.1561837E+00 (   4.250eV) occ=1.000
     0.4063971E-01 (   1.106eV) occ=1.000
     0.4063629E-01 (   1.106eV) occ=1.000
     0.4063439E-01 (   1.106eV) occ=1.000
     0.4063086E-01 (   1.106eV) occ=1.000
    -0.7980780E-01 (  -2.172eV) occ=1.000
    -0.2804879E+00 (  -7.633eV) occ=1.000

 Brillouin zone point:     63
    weight=  0.008000
    k     =<   0.000   0.000   0.000> . <b1,b2,b3> 
          =<   0.000   0.000   0.000>

 orbital energies:
     0.5027974E+00 (  13.682eV) occ=1.000
     0.5027923E+00 (  13.682eV) occ=1.000
     0.5027917E+00 (  13.682eV) occ=1.000
     0.2675682E+00 (   7.281eV) occ=1.000
     0.2675673E+00 (   7.281eV) occ=1.000
     0.2675625E+00 (   7.281eV) occ=1.000
     0.2675617E+00 (   7.281eV) occ=1.000
     0.2675617E+00 (   7.281eV) occ=1.000
     0.2675571E+00 (   7.281eV) occ=1.000
     0.3203155E-01 (   0.872eV) occ=1.000
     0.3202917E-01 (   0.872eV) occ=1.000
     0.3202624E-01 (   0.871eV) occ=1.000
     0.3202578E-01 (   0.871eV) occ=1.000
     0.3202320E-01 (   0.871eV) occ=1.000
     0.3202269E-01 (   0.871eV) occ=1.000
    -0.2943373E+00 (  -8.009eV) occ=1.000

 Total BAND energy   :  -0.4562339429E+02


=== Spin Contamination ===
 
 <Sexact^2> =   0.000000000000000E+000
 <S^2>      =   0.000000000000000E+000
 


========================
= Gradient calculation =
========================


Translation force removed: (    0.00000    0.00000    0.00000)


          =============  Ion Gradients =================
 Ion Positions:
        1 C    (    3.33916    3.33910   -3.33913 ) - fixed
        2 C    (   -0.00001    0.00001    3.33914 ) - fixed
        3 C    (    0.00001    3.33910    0.00001 ) - fixed
        4 C    (    3.33914    0.00001   -0.00001 ) - fixed
        5 C    (   -1.66957   -1.66956   -1.66957 ) - fixed
        6 C    (    1.66958    1.66955   -1.66957 ) - fixed
        7 C    (    1.66956   -1.66954    1.66956 ) - fixed
        8 C    (   -1.66957    1.66955    1.66958 ) - fixed
 Ion Forces:
        1 C    (    0.00000    0.00000    0.00000 )
        2 C    (    0.00000    0.00000    0.00000 )
        3 C    (    0.00000    0.00000    0.00000 )
        4 C    (    0.00000    0.00000    0.00000 )
        5 C    (    0.00000    0.00000    0.00000 )
        6 C    (    0.00000    0.00000    0.00000 )
        7 C    (    0.00000    0.00000    0.00000 )
        8 C    (    0.00000    0.00000    0.00000 )
        C.O.M. (    0.00000    0.00000    0.00000 )
          ===============================================
          |F|       =   0.000000E+00
          |F|/nion  =   0.000000E+00
          max|Fatom|=   0.000000E+00 (   0.000eV/Angstrom)


 pseudopotential is not correctly formatted:
 C.cpp2                                            
 
 pseudopotential is not correctly formatted-bad brillioun zone:
 C.cpp2                                            
 
 Generated formatted_stress_filename: ./perm/C.cpp2


======================
= Stress calculation =
======================


          ============= ke ==============
      S =  (   -3.28771    0.00002   -0.00001 )
           (    0.00002   -3.28776    0.00002 )
           (   -0.00001    0.00002   -3.28772 )
          ===================================================
          |S|      = 0.56945E+01
          pressure = -.329E+01 au
                   = -.967E+03 Mbar
                   = -.967E+05 GPa
                   = -.955E+09 atm



======================
= Stress calculation =
======================


          ============= coulomb ==============
      S =  (   -0.19032    0.00001   -0.00001 )
           (    0.00001   -0.19031    0.00001 )
           (   -0.00001    0.00001   -0.19032 )
          ===================================================
          |S|      = 0.32964E+00
          pressure = -.190E+00 au
                   = -.560E+02 Mbar
                   = -.560E+04 GPa
                   = -.553E+08 atm



======================
= Stress calculation =
======================


          ============= local ==============
      S =  (    0.11916   -0.00002    0.00002 )
           (   -0.00002    0.11913   -0.00003 )
           (    0.00002   -0.00003    0.11916 )
          ===================================================
          |S|      = 0.20637E+00
          pressure = 0.119E+00 au
                   = 0.351E+02 Mbar
                   = 0.351E+04 GPa
                   = 0.346E+08 atm



======================
= Stress calculation =
======================


          ============= nonlocal ==============
      S =  (    0.11599    0.00000    0.00000 )
           (    0.00000    0.11600    0.00000 )
           (    0.00000    0.00000    0.11599 )
          ===================================================
          |S|      = 0.20091E+00
          pressure = 0.116E+00 au
                   = 0.341E+02 Mbar
                   = 0.341E+04 GPa
                   = 0.337E+08 atm



======================
= Stress calculation =
======================


          ============= xc1 ==============
      S =  (    0.66645    0.00000    0.00000 )
           (    0.00000    0.66645    0.00000 )
           (    0.00000    0.00000    0.66645 )
          ===================================================
          |S|      = 0.11543E+01
          pressure = 0.666E+00 au
                   = 0.196E+03 Mbar
                   = 0.196E+05 GPa
                   = 0.194E+09 atm



======================
= Stress calculation =
======================


          ============= xc ==============
      S =  (    0.66645    0.00000    0.00000 )
           (    0.00000    0.66645    0.00000 )
           (    0.00000    0.00000    0.66645 )
          ===================================================
          |S|      = 0.11543E+01
          pressure = 0.666E+00 au
                   = 0.196E+03 Mbar
                   = 0.196E+05 GPa
                   = 0.194E+09 atm



======================
= Stress calculation =
======================


          ============= ewald ==============
      S =  (    2.57668    0.00001   -0.00001 )
           (    0.00001    2.57674    0.00001 )
           (   -0.00001    0.00001    2.57668 )
          ===================================================
          |S|      = 0.44630E+01
          pressure = 0.258E+01 au
                   = 0.758E+03 Mbar
                   = 0.758E+05 GPa
                   = 0.748E+09 atm



======================
= Stress calculation =
======================


          ============= total gradient ==============
      S =  (    0.00025    0.00000    0.00000 )
           (    0.00000    0.00025    0.00001 )
           (    0.00000    0.00001    0.00025 )
          ===================================================
          |S|      = 0.42986E-03
          pressure = 0.248E-03 au
                   = 0.730E-01 Mbar
                   = 0.730E+01 GPa
                   = 0.720E+05 atm

 
       dE/da     =     0.00025
       dE/db     =     0.00025
       dE/dc     =     0.00025
       dE/dalpha =     0.00000
       dE/dbeta  =     0.00000
       dE/dgamma =    -0.00006
 


======================
= Stress calculation =
======================


          ============= Internal Stress Tensor ==============
      S =  (   -0.00001    0.00000    0.00000 )
           (    0.00000   -0.00001    0.00000 )
           (    0.00000    0.00000   -0.00001 )
          ===================================================
          |S|      = 0.96383E-05
          pressure = -.556E-05 au
                   = -.164E-02 Mbar
                   = -.164E+00 GPa
                   = -.162E+04 atm

 
 Writing Crystallographic Information File:./perm/diamond555.opt.cif
   - cell not shifted (nwpw:cif_shift_cell .false.)

 output psi filename:./perm/diamond-band.movecs


== Timing ==

cputime in seconds
  prologue    :   0.183716E+02
  main loop   :   0.114619E+03
  epilogue    :   0.382997E+01
  total       :   0.136821E+03
  cputime/step:   0.424516E+01       (      27 evalulations,      11 linesearches)


Time spent doing                        total          step
  FFTs                       :   0.461700E+00  0.171000E-01
  dot products               :   0.253876E+02  0.940281E+00
  geodesic                   :   0.134906E+02  0.499651E+00
  ffm_dgemm                  :   0.000000E+00  0.000000E+00
  fmf_dgemm                  :   0.000000E+00  0.000000E+00
  m_diagonalize              :   0.000000E+00  0.000000E+00
    - m_tredq                :   0.000000E+00  0.000000E+00
    - m_getdiags             :   0.000000E+00  0.000000E+00
    - m_tqliq                :   0.000000E+00  0.000000E+00
    - m_eigsrt               :   0.000000E+00  0.000000E+00
  exchange correlation       :   0.349833E+00  0.129568E-01
  local pseudopotentials     :   0.555396E-02  0.205702E-03
  non-local pseudopotentials :   0.132055E+02  0.489092E+00
  hartree potentials         :   0.809312E-02  0.299745E-03
  ion-ion interaction        :   0.146230E+00  0.541593E-02
  structure factors          :   0.130848E+00  0.484623E-02
  phase factors              :   0.000000E+00  0.000000E+00
  masking and packing        :   0.109028E+02  0.403808E+00
  queue fft                  :   0.599185E+02  0.221920E+01
  queue fft (serial)         :   0.252482E+02  0.935120E+00
  queue fft (message passing):   0.336399E+02  0.124592E+01
  HFX potential              :   0.000000E+00  0.000000E+00
  qmmm LJ                    :   0.000000E+00  0.000000E+00
  qmmm residual Q            :   0.000000E+00  0.000000E+00
 
     >>>  JOB COMPLETED     AT Fri Aug 27 11:00:56 2010  <<<

  Step       Energy      Delta E   Gmax     Grms     Xrms     Xmax   Walltime
  ---- ---------------- -------- -------- -------- -------- -------- --------
@    1     -45.62339429 -2.2D-05  0.00025  0.00007  0.00043  0.00147   1440.4
                                     ok       ok       ok       ok  


      ----------------------
      Optimization converged
      ----------------------


  Step       Energy      Delta E   Gmax     Grms     Xrms     Xmax   Walltime
  ---- ---------------- -------- -------- -------- -------- -------- --------
@    1     -45.62339429 -2.2D-05  0.00025  0.00007  0.00043  0.00147   1440.4
                                     ok       ok       ok       ok  

 
 
                         Geometry "geometry" -> "geometry"
                         ---------------------------------
 
 Output coordinates in angstroms (scale by  1.889725989 to convert to a.u.)
 
  No.       Tag          Charge          X              Y              Z
 ---- ---------------- ---------- -------------- -------------- --------------
    1 C                    6.0000     1.76699566     1.76699083     1.76699764
    2 C                    6.0000    -0.00000535     0.00000768     1.76699532
    3 C                    6.0000     0.00000560     1.76697756     0.00000768
    4 C                    6.0000     1.76699542     0.00000560    -0.00000535
    5 C                    6.0000     2.65049349     2.65048625     2.65049646
    6 C                    6.0000     0.88349248     0.88350309     2.65049414
    7 C                    6.0000     0.88350343     2.65047297     0.88350650
    8 C                    6.0000     2.65049325     0.88350101     0.88349347
 
      Lattice Parameters 
      ------------------ 
 
      lattice vectors in angstroms (scale by  1.889725989 to convert to a.u.)
 
      a1=<   3.534   0.000   0.000 >
      a2=<   0.000   3.534   0.000 >
      a3=<   0.000   0.000   3.534 >
      a=       3.534 b=      3.534 c=       3.534
      alpha=  90.000 beta=  90.000 gamma=  90.000
      omega=    44.1
 
      reciprocal lattice vectors in a.u.
 
      b1=<   0.941   0.000   0.000 >
      b2=<   0.000   0.941   0.000 >
      b3=<   0.000   0.000   0.941 >
 
      Atomic Mass 
      ----------- 
 
      C                 12.000000
 
 
 ==============================================================================
                                internuclear distances
 ------------------------------------------------------------------------------
       center one      |      center two      | atomic units |  angstroms
 ------------------------------------------------------------------------------
    5 C                |   1 C                |     2.89178  |     1.53026
    6 C                |   1 C                |     2.89177  |     1.53026
    6 C                |   2 C                |     2.89178  |     1.53026
    7 C                |   1 C                |     2.89175  |     1.53025
    7 C                |   3 C                |     2.89178  |     1.53026
    8 C                |   1 C                |     2.89178  |     1.53026
    8 C                |   4 C                |     2.89178  |     1.53026
 ------------------------------------------------------------------------------
                         number of included internuclear distances:          7
 ==============================================================================



 ==============================================================================
                                 internuclear angles
 ------------------------------------------------------------------------------
        center 1       |       center 2       |       center 3       |  degrees
 ------------------------------------------------------------------------------
    5 C                |   1 C                |   6 C                |   109.47
    5 C                |   1 C                |   7 C                |   109.47
    5 C                |   1 C                |   8 C                |   109.47
    6 C                |   1 C                |   7 C                |   109.47
    6 C                |   1 C                |   8 C                |   109.47
    7 C                |   1 C                |   8 C                |   109.47
    1 C                |   6 C                |   2 C                |   109.47
    1 C                |   7 C                |   3 C                |   109.47
    1 C                |   8 C                |   4 C                |   109.47
 ------------------------------------------------------------------------------
                            number of included internuclear angles:          9
 ==============================================================================




 Task  times  cpu:      669.5s     wall:      714.6s
 
 
                                NWChem Input Module
                                -------------------
 
 
 Summary of allocated global arrays
-----------------------------------
  No active global arrays



                         GA Statistics for process    0
                         ------------------------------

       create   destroy   get      put      acc     scatter   gather  read&inc
calls:    0        0        0        0        0        0        0        0     
number of processes/call 0.00e+00 0.00e+00 0.00e+00 0.00e+00 0.00e+00
bytes total:             0.00e+00 0.00e+00 0.00e+00 0.00e+00 0.00e+00 0.00e+00
bytes remote:            0.00e+00 0.00e+00 0.00e+00 0.00e+00 0.00e+00 0.00e+00
Max memory consumed for GA by this process: 0 bytes
 



                                  ACKNOWLEDGEMENT
                                  ---------------

            Please use the following acknowledgement where appropriate 
            for results obtained with NWChem:

            High Performance Computational Chemistry Group, "NWChem, A
            Computational Chemistry Package for Parallel Computers, 
            Version 5.1.1" (2008), Pacific Northwest National Laboratory,
            Richland, Washington 99352-0999, USA.


                                     CITATION
                                     --------

          Please use the following citation when publishing results
          obtained with NWChem:

          E. J. Bylaska, W. A. de Jong, N. Govind, K. Kowalski, T. P. Straatsma,
          M. Valiev, H. J. J. Van Dam, D. Wang, E. Apra, T. L. Windus, J. Hammond,
          J. Autschbach, P. Nichols, S. Hirata, M. T. Hackler, Y. Zhao, P.-D. Fan,
          R. J. Harrison, M. Dupuis, D. M. A. Smith, J. Nieplocha, V. Tipparaju,
          M. Krishnan, A. Vazquez-Mayagoitia, L. Jensen, M. Swart, Q. Wu,
          T. Van Voorhis, A. A. Auer, M. Nooijen, L. D. Crosby, E. Brown, 
          G. Cisneros, G. I. Fann, H. Fruchtl, J. Garza, K. Hirao,
          R. Kendall, J. A. Nichols, K. Tsemekhman, K. Wolinski, J. Anchell, 
          D. Bernholdt, P. Borowski, T. Clark, D. Clerc, H. Dachsel, M. Deegan, 
          K. Dyall, D. Elwood, E. Glendening, M. Gutowski, A. Hess, J. Jaffe, 
          B. Johnson, J. Ju, R. Kobayashi, R. Kutteh, Z. Lin, R. Littlefield, 
          X. Long, B. Meng, T. Nakajima, S. Niu, L. Pollack, M. Rosing, 
          G. Sandrone, M. Stave, H. Taylor, G. Thomas, J. van Lenthe, 
          A. Wong, and Z. Zhang,
          "NWChem, A Computational Chemistry Package for Parallel Computers, 
          Version 5.1.1" (2008),
                      Pacific Northwest National Laboratory,
                      Richland, Washington 99352-0999, USA.



 Total times  cpu:     1328.5s     wall:     1445.4s
MA_summarize_allocated_blocks: starting scan ...
MA_summarize_allocated_blocks: scan completed: 0 heap blocks, 0 stack blocks
MA usage statistics:

	allocation statistics:
					      heap	     stack
					      ----	     -----
	current number of blocks	         0	         0
	maximum number of blocks	       789	        18
	current total bytes		         0	         0
	maximum total bytes		 358163064	  49345504
	maximum total K-bytes		    358164	     49346
	maximum total M-bytes		       359	        50
