 argument  1 = diamond-symmetry.nw
 argument  2 = -np
 argument  3 = 4
 


============================== echo of input deck ==============================
title "Diamond 8 atom cubic cell generated using Fd-3m symmetry - geometry and unit cell optimization"
echo

memory 1500 mb

permanent_dir ./perm
scratch_dir   ./scratch

start diamond-symmetry


geometry nocenter noautosym noautoz print
  system crystal
    lat_a 3.58
    lat_b 3.58
    lat_c 3.58
    alpha 90.0
    beta  90.0
    gamma 90.0
  end
symmetry Fd-3m
C 0.0 0.0 0.0
end
set nwpw:cif_filename diamond-symmetry

#turn on pseudopotential filtering
set nwpw:kbpp_ray    .true.
set nwpw:kbpp_filter .true.


#***** setup the nwpw Band code - 3x3x3 k-point mesh ****
nwpw
   ewald_rcut 3.0
   ewald_ncut 8
   xc pbe96
   lmbfgs
   monkhorst-pack 3 3 3
   np_dimensions -1 -1 4
end

set includestress  .true.   # tell driver to optimize unit cell
set includelattice .true.   # tell driver to optimize with a,b,c,alpha,beta,gamma
task band optimize ignore

================================================================================


                                         
                                         
 
 
              Northwest Computational Chemistry Package (NWChem) 6.1
              ------------------------------------------------------
 
 
                    Environmental Molecular Sciences Laboratory
                       Pacific Northwest National Laboratory
                                Richland, WA 99352
 
                              Copyright (c) 1994-2010
                       Pacific Northwest National Laboratory
                            Battelle Memorial Institute
 
             NWChem is an open-source computational chemistry package
                        distributed under the terms of the
                      Educational Community License (ECL) 2.0
             A copy of the license is included with this distribution
                              in the LICENSE.TXT file
 
                                  ACKNOWLEDGMENT
                                  --------------

            This software and its documentation were developed at the
            EMSL at Pacific Northwest National Laboratory, a multiprogram
            national laboratory, operated for the U.S. Department of Energy
            by Battelle under Contract Number DE-AC05-76RL01830. Support
            for this work was provided by the Department of Energy Office
            of Biological and Environmental Research, Office of Basic
            Energy Sciences, and the Office of Advanced Scientific Computing.


           Job information
           ---------------

    hostname      = seattle-1
    program       = nwchem
    date          = Mon Jan 30 13:47:26 2012

    compiled      = Thu_Jan_26_17:34:10_2012
    source        = /home/bylaska/nwchem-releases/nwchem
    nwchem branch = Development
    input         = diamond-symmetry.nw
    prefix        = diamond-symmetry.
    data base     = ./perm/diamond-symmetry.db
    status        = startup
    nproc         =        4
    time left     =     -1s



           Memory information
           ------------------

    heap     =   49152001 doubles =    375.0 Mbytes
    stack    =   49152001 doubles =    375.0 Mbytes
    global   =   98304000 doubles =    750.0 Mbytes (distinct from heap & stack)
    total    =  196608002 doubles =   1500.0 Mbytes
    verify   = yes
    hardfail = no 


           Directory information
           ---------------------
 
  0 permanent = ./perm
  0 scratch   = ./scratch
 
 
 
 
                                NWChem Input Module
                                -------------------
 
 
 Diamond 8 atom cubic cell generated using Fd-3m symmetry - geometry and unit cell optimization
 --------------------------------------------------------------------------------
 
  !!!!!!!!!  geom_3d NEEDS TESTING !!!!!!!!!! 

DEBUG:primitive cell exists, but dctr was not called.

 
 
                             Geometry "geometry" -> ""
                             -------------------------
 
 Output coordinates in angstroms (scale by  1.889725989 to convert to a.u.)
 
  No.       Tag          Charge          X              Y              Z
 ---- ---------------- ---------- -------------- -------------- --------------
    1 C                    6.0000     0.00000000     0.00000000     0.00000000
    2 C                    6.0000     0.00000000     1.79000000     1.79000000
    3 C                    6.0000     1.79000000     1.79000000     0.00000000
    4 C                    6.0000     1.79000000     0.00000000     1.79000000
    5 C                    6.0000     2.68500000     0.89500000     2.68500000
    6 C                    6.0000     0.89500000     0.89500000     0.89500000
    7 C                    6.0000     0.89500000     2.68500000     2.68500000
    8 C                    6.0000     2.68500000     2.68500000     0.89500000
 
      Lattice Parameters 
      ------------------ 
 
      lattice vectors in angstroms (scale by  1.889725989 to convert to a.u.)
 
      a1=<   3.580   0.000   0.000 >
      a2=<   0.000   3.580   0.000 >
      a3=<   0.000   0.000   3.580 >
      a=       3.580 b=      3.580 c=       3.580
      alpha=  90.000 beta=  90.000 gamma=  90.000
      omega=    45.9
 
      reciprocal lattice vectors in a.u.
 
      b1=<   0.929   0.000   0.000 >
      b2=<   0.000   0.929   0.000 >
      b3=<   0.000   0.000   0.929 >
 
      Atomic Mass 
      ----------- 
 
      C                 12.000000
 
 
      Symmetry information
      --------------------
 
 Group name                  Fd-3m
 Group number            227
 Group order             192
 No. of unique centers     1
 Setting number            1
 
      Symmetry unique atoms
 
     1
 
 ==============================================================================
                                internuclear distances
 ------------------------------------------------------------------------------
       center one      |      center two      | atomic units |  angstroms
 ------------------------------------------------------------------------------
    5 C                |   4 C                |     2.92943  |     1.55019
    6 C                |   1 C                |     2.92943  |     1.55019
    6 C                |   2 C                |     2.92943  |     1.55019
    6 C                |   3 C                |     2.92943  |     1.55019
    6 C                |   4 C                |     2.92943  |     1.55019
    7 C                |   2 C                |     2.92943  |     1.55019
    8 C                |   3 C                |     2.92943  |     1.55019
 ------------------------------------------------------------------------------
                         number of included internuclear distances:          7
 ==============================================================================



 ==============================================================================
                                 internuclear angles
 ------------------------------------------------------------------------------
        center 1       |       center 2       |       center 3       |  degrees
 ------------------------------------------------------------------------------
    6 C                |   2 C                |   7 C                |   109.47
    6 C                |   3 C                |   8 C                |   109.47
    5 C                |   4 C                |   6 C                |   109.47
    1 C                |   6 C                |   2 C                |   109.47
    1 C                |   6 C                |   3 C                |   109.47
    1 C                |   6 C                |   4 C                |   109.47
    2 C                |   6 C                |   3 C                |   109.47
    2 C                |   6 C                |   4 C                |   109.47
    3 C                |   6 C                |   4 C                |   109.47
 ------------------------------------------------------------------------------
                            number of included internuclear angles:          9
 ==============================================================================



 
 
                           NWChem Geometry Optimization
                           ----------------------------
 
 
 maximum gradient threshold         (gmax) =   0.000450
 rms gradient threshold             (grms) =   0.000300
 maximum cartesian step threshold   (xmax) =   0.001800
 rms cartesian step threshold       (xrms) =   0.001200
 fixed trust radius                (trust) =   0.300000
 maximum step size to saddle      (sadstp) =   0.100000
 energy precision                  (eprec) =   1.0D-07
 maximum number of steps          (nptopt) =   20
 initial hessian option           (inhess) =    0
 line search option               (linopt) =    1
 hessian update option            (modupd) =    1
 saddle point option              (modsad) =    0
 initial eigen-mode to follow     (moddir) =    0
 initial variable to follow       (vardir) =    0
 follow first negative mode     (firstneg) =    T
 apply conjugacy                    (opcg) =    F
 source of zmatrix                         =           


          -------------------
          Energy Minimization
          -------------------

  INCLUDING LATTICE GRADIENTS !!!!!
 
 Using diagonal initial Hessian 
  The initial hessian 

              1        2        3        4        5        6        7        8
    1   35.9104   0.0000   0.0000   0.0000   0.0000   0.0000  -3.8376   0.0000
    2    0.0000  35.9104   0.0000   0.0000  -3.8376   0.0000   0.0000  -3.8376
    3    0.0000   0.0000  35.9104   0.0000   0.0000  -3.8376   0.0000   0.0000
    4    0.0000   0.0000   0.0000  35.9104   0.0000   0.0000  -3.8376   0.0000
    5    0.0000  -3.8376   0.0000   0.0000  35.9104   0.0000   0.0000   0.0000
    6    0.0000   0.0000  -3.8376   0.0000   0.0000  35.9104   0.0000   0.0000
    7   -3.8376   0.0000   0.0000  -3.8376   0.0000   0.0000  35.9104   0.0000
    8    0.0000  -3.8376   0.0000   0.0000   0.0000   0.0000   0.0000  35.9104
    9    0.0000   0.0000   0.0000   0.0000   0.0000  -3.8376   0.0000   0.0000
   10   -3.8376   0.0000   0.0000  -3.8376   0.0000   0.0000   0.0000   0.0000
   11    0.0000   0.0000   0.0000   0.0000  -3.8376   0.0000   0.0000  -3.8376
   12    0.0000   0.0000  -3.8376   0.0000   0.0000   0.0000   0.0000   0.0000
   13   -5.2633   3.9569  -3.9569  -5.2633  -3.9569   3.9569  -5.2633   3.9569
   14    3.9569  -5.2633   3.9569  -3.9569  -5.2633   3.9569   3.9569  -5.2633
   15   -3.9569   3.9569  -5.2633   3.9569   3.9569  -5.2633   3.9569  -3.9569
   16   -5.2633  -3.9569  -3.9569  -5.2633   3.9569   3.9569  -5.2633  -3.9569
   17   -3.9569  -5.2633  -3.9569   3.9569  -5.2633  -3.9569  -3.9569  -5.2633
   18   -3.9569  -3.9569  -5.2633   3.9569  -3.9569  -5.2633   3.9569   3.9569
   19   -5.2633   3.9569   3.9569  -5.2633  -3.9569  -3.9569  -5.2633   3.9569
   20    3.9569  -5.2633  -3.9569  -3.9569  -5.2633  -3.9569   3.9569  -5.2633
   21    3.9569  -3.9569  -5.2633  -3.9569  -3.9569  -5.2633  -3.9569   3.9569
   22   -5.2633  -3.9569   3.9569  -5.2633   3.9569  -3.9569  -5.2633  -3.9569
   23   -3.9569  -5.2633   3.9569   3.9569  -5.2633   3.9569  -3.9569  -5.2633
   24    3.9569   3.9569  -5.2633  -3.9569   3.9569  -5.2633  -3.9569  -3.9569

              9       10       11       12       13       14       15       16
    1    0.0000  -3.8376   0.0000   0.0000  -5.2633   3.9569  -3.9569  -5.2633
    2    0.0000   0.0000   0.0000   0.0000   3.9569  -5.2633   3.9569  -3.9569
    3    0.0000   0.0000   0.0000  -3.8376  -3.9569   3.9569  -5.2633  -3.9569
    4    0.0000  -3.8376   0.0000   0.0000  -5.2633  -3.9569   3.9569  -5.2633
    5    0.0000   0.0000  -3.8376   0.0000  -3.9569  -5.2633   3.9569   3.9569
    6   -3.8376   0.0000   0.0000   0.0000   3.9569   3.9569  -5.2633   3.9569
    7    0.0000   0.0000   0.0000   0.0000  -5.2633   3.9569   3.9569  -5.2633
    8    0.0000   0.0000  -3.8376   0.0000   3.9569  -5.2633  -3.9569  -3.9569
    9   35.9104   0.0000   0.0000  -3.8376   3.9569  -3.9569  -5.2633   3.9569
   10    0.0000  35.9104   0.0000   0.0000  -5.2633  -3.9569  -3.9569  -5.2633
   11    0.0000   0.0000  35.9104   0.0000  -3.9569  -5.2633  -3.9569   3.9569
   12   -3.8376   0.0000   0.0000  35.9104  -3.9569  -3.9569  -5.2633  -3.9569
   13    3.9569  -5.2633  -3.9569  -3.9569  35.9104   0.0000   0.0000  -3.8376
   14   -3.9569  -3.9569  -5.2633  -3.9569   0.0000  35.9104   0.0000   0.0000
   15   -5.2633  -3.9569  -3.9569  -5.2633   0.0000   0.0000  35.9104   0.0000
   16    3.9569  -5.2633   3.9569  -3.9569  -3.8376   0.0000   0.0000  35.9104
   17    3.9569   3.9569  -5.2633   3.9569   0.0000   0.0000   0.0000   0.0000
   18   -5.2633  -3.9569   3.9569  -5.2633   0.0000   0.0000  -3.8376   0.0000
   19   -3.9569  -5.2633  -3.9569   3.9569  -3.8376   0.0000   0.0000   0.0000
   20    3.9569  -3.9569  -5.2633   3.9569   0.0000  -3.8376   0.0000   0.0000
   21   -5.2633   3.9569   3.9569  -5.2633   0.0000   0.0000   0.0000   0.0000
   22   -3.9569  -5.2633   3.9569   3.9569   0.0000   0.0000   0.0000  -3.8376
   23   -3.9569   3.9569  -5.2633  -3.9569   0.0000  -3.8376   0.0000   0.0000
   24   -5.2633   3.9569  -3.9569  -5.2633   0.0000   0.0000  -3.8376   0.0000

             17       18       19       20       21       22       23       24
    1   -3.9569  -3.9569  -5.2633   3.9569   3.9569  -5.2633  -3.9569   3.9569
    2   -5.2633  -3.9569   3.9569  -5.2633  -3.9569  -3.9569  -5.2633   3.9569
    3   -3.9569  -5.2633   3.9569  -3.9569  -5.2633   3.9569   3.9569  -5.2633
    4    3.9569   3.9569  -5.2633  -3.9569  -3.9569  -5.2633   3.9569  -3.9569
    5   -5.2633  -3.9569  -3.9569  -5.2633  -3.9569   3.9569  -5.2633   3.9569
    6   -3.9569  -5.2633  -3.9569  -3.9569  -5.2633  -3.9569   3.9569  -5.2633
    7   -3.9569   3.9569  -5.2633   3.9569  -3.9569  -5.2633  -3.9569  -3.9569
    8   -5.2633   3.9569   3.9569  -5.2633   3.9569  -3.9569  -5.2633  -3.9569
    9    3.9569  -5.2633  -3.9569   3.9569  -5.2633  -3.9569  -3.9569  -5.2633
   10    3.9569  -3.9569  -5.2633  -3.9569   3.9569  -5.2633   3.9569   3.9569
   11   -5.2633   3.9569  -3.9569  -5.2633   3.9569   3.9569  -5.2633  -3.9569
   12    3.9569  -5.2633   3.9569   3.9569  -5.2633   3.9569  -3.9569  -5.2633
   13    0.0000   0.0000  -3.8376   0.0000   0.0000   0.0000   0.0000   0.0000
   14    0.0000   0.0000   0.0000  -3.8376   0.0000   0.0000  -3.8376   0.0000
   15    0.0000  -3.8376   0.0000   0.0000   0.0000   0.0000   0.0000  -3.8376
   16    0.0000   0.0000   0.0000   0.0000   0.0000  -3.8376   0.0000   0.0000
   17   35.9104   0.0000   0.0000  -3.8376   0.0000   0.0000  -3.8376   0.0000
   18    0.0000  35.9104   0.0000   0.0000  -3.8376   0.0000   0.0000   0.0000
   19    0.0000   0.0000  35.9104   0.0000   0.0000  -3.8376   0.0000   0.0000
   20   -3.8376   0.0000   0.0000  35.9104   0.0000   0.0000   0.0000   0.0000
   21    0.0000  -3.8376   0.0000   0.0000  35.9104   0.0000   0.0000  -3.8376
   22    0.0000   0.0000  -3.8376   0.0000   0.0000  35.9104   0.0000   0.0000
   23   -3.8376   0.0000   0.0000   0.0000   0.0000   0.0000  35.9104   0.0000
   24    0.0000   0.0000   0.0000   0.0000  -3.8376   0.0000   0.0000  35.9104

             25       26       27       28       29       30      
   25    1.6765   0.0500   0.0500   0.0000   0.0000   0.0000
   26    0.0500   1.6765   0.0500   0.0000   0.0000   0.0000
   27    0.0500   0.0500   1.6765   0.0000   0.0000   0.0000
   28    0.0000   0.0000   0.0000 300.0000   0.0000   0.0000
   29    0.0000   0.0000   0.0000   0.0000 300.0000   0.0000
   30    0.0000   0.0000   0.0000   0.0000   0.0000 300.0000

          --------
          Step   0
          --------
 
 
                         Geometry "geometry" -> "geometry"
                         ---------------------------------
 
 Output coordinates in angstroms (scale by  1.889725989 to convert to a.u.)
 
  No.       Tag          Charge          X              Y              Z
 ---- ---------------- ---------- -------------- -------------- --------------
    1 C                    6.0000     0.00000000     0.00000000     0.00000000
    2 C                    6.0000     0.00000000     1.79000000     1.79000000
    3 C                    6.0000     1.79000000     1.79000000     0.00000000
    4 C                    6.0000     1.79000000     0.00000000     1.79000000
    5 C                    6.0000     2.68500000     0.89500000     2.68500000
    6 C                    6.0000     0.89500000     0.89500000     0.89500000
    7 C                    6.0000     0.89500000     2.68500000     2.68500000
    8 C                    6.0000     2.68500000     2.68500000     0.89500000
 
      Lattice Parameters 
      ------------------ 
 
      lattice vectors in angstroms (scale by  1.889725989 to convert to a.u.)
 
      a1=<   3.580   0.000   0.000 >
      a2=<   0.000   3.580   0.000 >
      a3=<   0.000   0.000   3.580 >
      a=       3.580 b=      3.580 c=       3.580
      alpha=  90.000 beta=  90.000 gamma=  90.000
      omega=    45.9
 
      reciprocal lattice vectors in a.u.
 
      b1=<   0.929   0.000   0.000 >
      b2=<   0.000   0.929   0.000 >
      b3=<   0.000   0.000   0.929 >
 
      Atomic Mass 
      ----------- 
 
      C                 12.000000
 
 
      Symmetry information
      --------------------
 
 Group name                  Fd-3m
 Group number            227
 Group order             192
 No. of unique centers     1
 Setting number            1
 
      Symmetry unique atoms
 
     1
 
  library name resolved from: compiled reference
  NWCHEM_NWPW_LIBRARY set to: <
 /home/bylaska/nwchem-releases/nwchem/src/nwpw/libraryps/>
          **********************************************************
          *                                                        *
          *                   NWPW BAND Calculation                *
          *                                                        *
          *  [(bundled Grassman/Stiefel manifold implementation)]  *
          *                                                        *
          *         [ NorthWest Chemistry implementation ]         *
          *                                                        *
          *                version #1.10   01/31/03                *
          *                                                        *
          *  A pseudopotential plane-wave band structure program   *
          *  with Brillouin zone sampling for optimizing crystals, *
          *  slabs, and polymers.  Developed by Eric J. Bylaska    *
          *  , Edoardo Apra, and Patrick Nichols.                  *
          *                                                        *
          **********************************************************
     >>>  JOB STARTED       AT Mon Jan 30 13:47:26 2012  <<<
          ================ input data ========================
  library name resolved from: compiled reference
  NWCHEM_NWPW_LIBRARY set to: <
 /home/bylaska/nwchem-releases/nwchem/src/nwpw/libraryps/>
 Generating 1d pseudopotential for C   
 
 Generated formatted_filename: ./perm/C.cpp
 - Spline fitted, nray= 2641 -
 - filtered -
 random planewave guess, initial psi:
 diamond-symmetry.movecs                           
 -   spin, nalpha, nbeta:                     1                    16
                     0

 input psi filename:./perm/diamond-symmetry.movecs
Warning - Orthogonalization performed, spin,zone: 1   1
        - error(before)=  0.205223E+01 (  0.139478E+02)
        - error(after)=   0.230926E-13 (  0.160000E+02)
Warning - Orthogonalization performed, spin,zone: 1   2
        - error(before)=  0.204810E+01 (  0.139519E+02)
        - error(after)=   0.710543E-14 (  0.160000E+02)
Warning - Orthogonalization performed, spin,zone: 1   3
        - error(before)=  0.204860E+01 (  0.139514E+02)
        - error(after)=   0.248690E-13 (  0.160000E+02)
Warning - Orthogonalization performed, spin,zone: 1   4
        - error(before)=  0.204908E+01 (  0.139509E+02)
        - error(after)=   0.355271E-14 (  0.160000E+02)
Warning - Orthogonalization performed, spin,zone: 1   5
        - error(before)=  0.204896E+01 (  0.139510E+02)
        - error(after)=   0.000000E+00 (  0.160000E+02)
Warning - Orthogonalization performed, spin,zone: 1   6
        - error(before)=  0.205318E+01 (  0.139468E+02)
        - error(after)=   0.106581E-13 (  0.160000E+02)
Warning - Orthogonalization performed, spin,zone: 1   7
        - error(before)=  0.204472E+01 (  0.139553E+02)
        - error(after)=   0.230926E-13 (  0.160000E+02)
Warning - Orthogonalization performed, spin,zone: 1   8
        - error(before)=  0.205312E+01 (  0.139469E+02)
        - error(after)=   0.213163E-13 (  0.160000E+02)
Warning - Orthogonalization performed, spin,zone: 1   9
        - error(before)=  0.204878E+01 (  0.139512E+02)
        - error(after)=   0.159872E-13 (  0.160000E+02)
Warning - Orthogonalization performed, spin,zone: 1  10
        - error(before)=  0.204879E+01 (  0.139512E+02)
        - error(after)=   0.355271E-14 (  0.160000E+02)
Warning - Orthogonalization performed, spin,zone: 1  11
        - error(before)=  0.204555E+01 (  0.139544E+02)
        - error(after)=   0.159872E-13 (  0.160000E+02)
Warning - Orthogonalization performed, spin,zone: 1  12
        - error(before)=  0.205182E+01 (  0.139482E+02)
        - error(after)=   0.106581E-13 (  0.160000E+02)
Warning - Orthogonalization performed, spin,zone: 1  13
        - error(before)=  0.204437E+01 (  0.139556E+02)
        - error(after)=   0.710543E-14 (  0.160000E+02)
Warning - Orthogonalization performed, spin,zone: 1  14
        - error(before)=  0.204601E+01 (  0.139540E+02)
        - error(after)=   0.124345E-13 (  0.160000E+02)

 number of processors used:               4
 processor grid           :   1 x   1 x   4
 parallel mapping         :     2d  hilbert

 options:
      boundary conditions  = periodic    (version3)
      electron spin        = restricted
      exchange-correlation = PBE96 (White and Bird) parameterization

 elements involved in the cluster:
      1: C     core charge: 4.0  lmax=2
             comment    : Parameterized (J.Phys.Chem., vol 100, page 6966) Hamman psp
             pseudpotential type            :   0
             highest angular component      :   2
             local potential used           :   2
             number of non-local projections:   4
             cutoff =   0.800   0.850   0.850

 total charge:   0.000

 atomic composition:
     C   :  8

 number of electrons: spin up=   16.00  spin down=   16.00 (fourier space)
 number of orbitals:  spin up=      16  spin down=      16 (fourier space)

 supercell:
      lattice:    a1=<   6.765   0.000   0.000 >
                  a2=<   0.000   6.765   0.000 >
                  a3=<   0.000   0.000   6.765 >
      reciprocal: b1=<   0.929   0.000   0.000 >
                  b2=<   0.000   0.929   0.000 >
                  b3=<   0.000   0.000   0.929 >

      lattice:    a=   6.765    b=   6.765     c=   6.765
              alpha=  90.000 beta=  90.000 gamma=  90.000
      volume :      309.6
      ewald summation: cut radius=    3.00  and  8
                        madelung= 1.76011888

 brillouin zone:
      number of zone points:    14
      weight=   0.074  ks=<   0.333   0.333   0.333 >, k=<   0.310   0.310   0.310>
      weight=   0.074  ks=<   0.000   0.333   0.333 >, k=<   0.000   0.310   0.310>
      weight=   0.074  ks=<  -0.333   0.333   0.333 >, k=<  -0.310   0.310   0.310>
      weight=   0.074  ks=<   0.333   0.000   0.333 >, k=<   0.310   0.000   0.310>
      weight=   0.074  ks=<   0.000   0.000   0.333 >, k=<   0.000   0.000   0.310>
      weight=   0.074  ks=<   0.333   0.000  -0.333 >, k=<   0.310   0.000  -0.310>
      weight=   0.074  ks=<   0.333  -0.333   0.333 >, k=<   0.310  -0.310   0.310>
      weight=   0.074  ks=<   0.000   0.333  -0.333 >, k=<   0.000   0.310  -0.310>
      weight=   0.074  ks=<   0.333   0.333  -0.333 >, k=<   0.310   0.310  -0.310>
      weight=   0.074  ks=<   0.333   0.333   0.000 >, k=<   0.310   0.310   0.000>
      weight=   0.074  ks=<   0.000   0.333   0.000 >, k=<   0.000   0.310   0.000>
      weight=   0.074  ks=<   0.333  -0.333   0.000 >, k=<   0.310  -0.310   0.000>
      weight=   0.074  ks=<   0.333   0.000   0.000 >, k=<   0.310   0.000   0.000>
      weight=   0.037  ks=<   0.000   0.000   0.000 >, k=<   0.000   0.000   0.000>

 computational grids:
      density     cutoff= 70.000  fft=  28x  28x  28(     8709 waves     8709 per task)
      wavefnc   1 cutoff= 35.000  fft=  28x  28x  28(     3085 waves     3085 per task)
      wavefnc   2 cutoff= 35.000  fft=  28x  28x  28(     3045 waves     3045 per task)
      wavefnc   3 cutoff= 35.000  fft=  28x  28x  28(     3085 waves     3085 per task)
      wavefnc   4 cutoff= 35.000  fft=  28x  28x  28(     3045 waves     3045 per task)
      wavefnc   5 cutoff= 35.000  fft=  28x  28x  28(     3062 waves     3062 per task)
      wavefnc   6 cutoff= 35.000  fft=  28x  28x  28(     3045 waves     3045 per task)
      wavefnc   7 cutoff= 35.000  fft=  28x  28x  28(     3085 waves     3085 per task)
      wavefnc   8 cutoff= 35.000  fft=  28x  28x  28(     3045 waves     3045 per task)
      wavefnc   9 cutoff= 35.000  fft=  28x  28x  28(     3085 waves     3085 per task)
      wavefnc  10 cutoff= 35.000  fft=  28x  28x  28(     3045 waves     3045 per task)
      wavefnc  11 cutoff= 35.000  fft=  28x  28x  28(     3062 waves     3062 per task)
      wavefnc  12 cutoff= 35.000  fft=  28x  28x  28(     3045 waves     3045 per task)
      wavefnc  13 cutoff= 35.000  fft=  28x  28x  28(     3062 waves     3062 per task)
      wavefnc  14 cutoff= 35.000  fft=  28x  28x  28(     3071 waves     3071 per task)

 technical parameters:
      time step=      5.80     ficticious mass=  400000.0
      tolerance=.100E-06 (energy)   0.100E-06 (density)
      maximum iterations =      1000 (   10 inner    100 outer )



= energy calculation =


          ======== bundled Grassmann lmbfgs iteration ========
     >>>  ITERATION STARTED AT Mon Jan 30 13:47:30 2012  <<<
    iter.           Energy         DeltaE       DeltaRho 
    ------------------------------------------------------
     -  10 steepest descent iterations performed
      10   -0.3883268149E+02   -0.11822E+01    0.14180E+01
     -  10 steepest descent iterations performed
      20   -0.4399090471E+02   -0.14618E+00    0.35262E-01
     -  10 steepest descent iterations performed
      30   -0.4475684858E+02   -0.44077E-01    0.24408E-02
     -  10 steepest descent iterations performed
      40   -0.4536361116E+02   -0.18640E-01    0.19003E-02
     -  10 steepest descent iterations performed
      50   -0.4552423906E+02   -0.71622E-02    0.43213E-03
      60   -0.4561177925E+02   -0.42991E-02    0.22413E-03
      70   -0.4561963404E+02   -0.12946E-03    0.12787E-04
      80   -0.4562005191E+02   -0.81964E-05    0.58713E-06
      90   -0.4562008027E+02   -0.47886E-06    0.41981E-07
     100   -0.4562008155E+02   -0.81042E-07    0.18541E-08
  *** tolerance ok.    iteration terminated.
     >>>  ITERATION ENDED   AT Mon Jan 30 13:49:07 2012  <<<


          =============  summary of results  =================
 
 number of electrons: spin up=   16.00000  down=   16.00000 (real space)

 total     energy    :  -0.4562008155E+02 (   -0.57025E+01/ion)
 total orbital energy:   0.4919032774E+01 (    0.30744E+00/electron)
 hartree   energy    :   0.3896610108E+01 (    0.24354E+00/electron)
 exc-corr  energy    :  -0.1421848863E+02 (   -0.88866E+00/electron)
 ion-ion   energy    :  -0.5095992795E+02 (   -0.63700E+01/ion)

 K.S. kinetic energy :   0.3245249288E+02 (    0.20283E+01/electron)
 K.S. V_l  energy    :  -0.4875324908E+01 (   -0.30471E+00/electron)
 K.S. V_nl energy    :  -0.3281726421E+00 (   -0.20511E-01/electron)
 K.S. V_Hart energy  :   0.7793220216E+01 (    0.48708E+00/electron)
 K.S. V_xc energy    :  -0.1853591237E+02 (   -0.11585E+01/electron)
 K.S. V_so energy    :   0.0000000000E+00 (    0.00000E+00/electron)
 Virial Coefficient  :  -0.4913702550E+00

 Brillouin zone point:      1
    weight=  0.074074
    k     =<   0.333   0.333   0.333> . <b1,b2,b3> 
          =<   0.310   0.310   0.310>

 orbital energies:
     0.3938450E+00 (  10.717eV) occ=1.000
     0.3938444E+00 (  10.717eV) occ=1.000
     0.3346295E+00 (   9.106eV) occ=1.000
     0.3346291E+00 (   9.106eV) occ=1.000
     0.3346288E+00 (   9.106eV) occ=1.000
     0.2980038E+00 (   8.109eV) occ=1.000
     0.2980025E+00 (   8.109eV) occ=1.000
     0.2980019E+00 (   8.109eV) occ=1.000
     0.1400799E+00 (   3.812eV) occ=1.000
     0.4453679E-01 (   1.212eV) occ=1.000
     0.4453625E-01 (   1.212eV) occ=1.000
     0.4453579E-01 (   1.212eV) occ=1.000
    -0.9133723E-01 (  -2.485eV) occ=1.000
    -0.9133829E-01 (  -2.485eV) occ=1.000
    -0.9133875E-01 (  -2.485eV) occ=1.000
    -0.1907761E+00 (  -5.191eV) occ=1.000

 Brillouin zone point:      2
    weight=  0.074074
    k     =<   0.000   0.333   0.333> . <b1,b2,b3> 
          =<   0.000   0.310   0.310>

 orbital energies:
     0.4277871E+00 (  11.641eV) occ=1.000
     0.3088137E+00 (   8.403eV) occ=1.000
     0.3049600E+00 (   8.298eV) occ=1.000
     0.3048735E+00 (   8.296eV) occ=1.000
     0.3048728E+00 (   8.296eV) occ=1.000
     0.2724202E+00 (   7.413eV) occ=1.000
     0.2147503E+00 (   5.844eV) occ=1.000
     0.2147501E+00 (   5.844eV) occ=1.000
     0.1639491E+00 (   4.461eV) occ=1.000
     0.1639486E+00 (   4.461eV) occ=1.000
     0.1406306E+00 (   3.827eV) occ=1.000
     0.8283041E-01 (   2.254eV) occ=1.000
    -0.3070792E-01 (  -0.836eV) occ=1.000
    -0.1200880E+00 (  -3.268eV) occ=1.000
    -0.1200883E+00 (  -3.268eV) occ=1.000
    -0.2267225E+00 (  -6.169eV) occ=1.000

 Brillouin zone point:      3
    weight=  0.074074
    k     =<  -0.333   0.333   0.333> . <b1,b2,b3> 
          =<  -0.310   0.310   0.310>

 orbital energies:
     0.3938451E+00 (  10.717eV) occ=1.000
     0.3938445E+00 (  10.717eV) occ=1.000
     0.3346299E+00 (   9.106eV) occ=1.000
     0.3346292E+00 (   9.106eV) occ=1.000
     0.3346291E+00 (   9.106eV) occ=1.000
     0.2980029E+00 (   8.109eV) occ=1.000
     0.2980027E+00 (   8.109eV) occ=1.000
     0.2980023E+00 (   8.109eV) occ=1.000
     0.1400798E+00 (   3.812eV) occ=1.000
     0.4453688E-01 (   1.212eV) occ=1.000
     0.4453631E-01 (   1.212eV) occ=1.000
     0.4453577E-01 (   1.212eV) occ=1.000
    -0.9133777E-01 (  -2.485eV) occ=1.000
    -0.9133800E-01 (  -2.485eV) occ=1.000
    -0.9133854E-01 (  -2.485eV) occ=1.000
    -0.1907761E+00 (  -5.191eV) occ=1.000

 Brillouin zone point:      4
    weight=  0.074074
    k     =<   0.333   0.000   0.333> . <b1,b2,b3> 
          =<   0.310   0.000   0.310>

 orbital energies:
     0.4277873E+00 (  11.641eV) occ=1.000
     0.3088138E+00 (   8.403eV) occ=1.000
     0.3049602E+00 (   8.298eV) occ=1.000
     0.3048736E+00 (   8.296eV) occ=1.000
     0.3048722E+00 (   8.296eV) occ=1.000
     0.2724198E+00 (   7.413eV) occ=1.000
     0.2147501E+00 (   5.844eV) occ=1.000
     0.2147499E+00 (   5.844eV) occ=1.000
     0.1639494E+00 (   4.461eV) occ=1.000
     0.1639492E+00 (   4.461eV) occ=1.000
     0.1406307E+00 (   3.827eV) occ=1.000
     0.8282994E-01 (   2.254eV) occ=1.000
    -0.3070771E-01 (  -0.836eV) occ=1.000
    -0.1200879E+00 (  -3.268eV) occ=1.000
    -0.1200885E+00 (  -3.268eV) occ=1.000
    -0.2267224E+00 (  -6.169eV) occ=1.000

 Brillouin zone point:      5
    weight=  0.074074
    k     =<   0.000   0.000   0.333> . <b1,b2,b3> 
          =<   0.000   0.000   0.310>

 orbital energies:
     0.3965846E+00 (  10.792eV) occ=1.000
     0.3851668E+00 (  10.481eV) occ=1.000
     0.3851663E+00 (  10.481eV) occ=1.000
     0.2863882E+00 (   7.793eV) occ=1.000
     0.2863874E+00 (   7.793eV) occ=1.000
     0.2185495E+00 (   5.947eV) occ=1.000
     0.1969196E+00 (   5.358eV) occ=1.000
     0.1969195E+00 (   5.358eV) occ=1.000
     0.1969193E+00 (   5.358eV) occ=1.000
     0.1969189E+00 (   5.358eV) occ=1.000
     0.3596185E-01 (   0.979eV) occ=1.000
     0.3596150E-01 (   0.979eV) occ=1.000
     0.3596080E-01 (   0.979eV) occ=1.000
     0.3596015E-01 (   0.979eV) occ=1.000
    -0.1541248E+00 (  -4.194eV) occ=1.000
    -0.2635223E+00 (  -7.171eV) occ=1.000

 Brillouin zone point:      6
    weight=  0.074074
    k     =<   0.333   0.000  -0.333> . <b1,b2,b3> 
          =<   0.310   0.000  -0.310>

 orbital energies:
     0.4277869E+00 (  11.641eV) occ=1.000
     0.3088136E+00 (   8.403eV) occ=1.000
     0.3049599E+00 (   8.298eV) occ=1.000
     0.3048733E+00 (   8.296eV) occ=1.000
     0.3048732E+00 (   8.296eV) occ=1.000
     0.2724205E+00 (   7.413eV) occ=1.000
     0.2147505E+00 (   5.844eV) occ=1.000
     0.2147501E+00 (   5.844eV) occ=1.000
     0.1639488E+00 (   4.461eV) occ=1.000
     0.1639484E+00 (   4.461eV) occ=1.000
     0.1406306E+00 (   3.827eV) occ=1.000
     0.8283070E-01 (   2.254eV) occ=1.000
    -0.3070804E-01 (  -0.836eV) occ=1.000
    -0.1200879E+00 (  -3.268eV) occ=1.000
    -0.1200883E+00 (  -3.268eV) occ=1.000
    -0.2267225E+00 (  -6.169eV) occ=1.000

 Brillouin zone point:      7
    weight=  0.074074
    k     =<   0.333  -0.333   0.333> . <b1,b2,b3> 
          =<   0.310  -0.310   0.310>

 orbital energies:
     0.3938450E+00 (  10.717eV) occ=1.000
     0.3938447E+00 (  10.717eV) occ=1.000
     0.3346296E+00 (   9.106eV) occ=1.000
     0.3346293E+00 (   9.106eV) occ=1.000
     0.3346290E+00 (   9.106eV) occ=1.000
     0.2980029E+00 (   8.109eV) occ=1.000
     0.2980023E+00 (   8.109eV) occ=1.000
     0.2980018E+00 (   8.109eV) occ=1.000
     0.1400795E+00 (   3.812eV) occ=1.000
     0.4453688E-01 (   1.212eV) occ=1.000
     0.4453637E-01 (   1.212eV) occ=1.000
     0.4453623E-01 (   1.212eV) occ=1.000
    -0.9133762E-01 (  -2.485eV) occ=1.000
    -0.9133821E-01 (  -2.485eV) occ=1.000
    -0.9133870E-01 (  -2.485eV) occ=1.000
    -0.1907760E+00 (  -5.191eV) occ=1.000

 Brillouin zone point:      8
    weight=  0.074074
    k     =<   0.000   0.333  -0.333> . <b1,b2,b3> 
          =<   0.000   0.310  -0.310>

 orbital energies:
     0.4277871E+00 (  11.641eV) occ=1.000
     0.3088137E+00 (   8.403eV) occ=1.000
     0.3049601E+00 (   8.298eV) occ=1.000
     0.3048733E+00 (   8.296eV) occ=1.000
     0.3048728E+00 (   8.296eV) occ=1.000
     0.2724201E+00 (   7.413eV) occ=1.000
     0.2147502E+00 (   5.844eV) occ=1.000
     0.2147500E+00 (   5.844eV) occ=1.000
     0.1639492E+00 (   4.461eV) occ=1.000
     0.1639490E+00 (   4.461eV) occ=1.000
     0.1406307E+00 (   3.827eV) occ=1.000
     0.8283022E-01 (   2.254eV) occ=1.000
    -0.3070785E-01 (  -0.836eV) occ=1.000
    -0.1200880E+00 (  -3.268eV) occ=1.000
    -0.1200883E+00 (  -3.268eV) occ=1.000
    -0.2267225E+00 (  -6.169eV) occ=1.000

 Brillouin zone point:      9
    weight=  0.074074
    k     =<   0.333   0.333  -0.333> . <b1,b2,b3> 
          =<   0.310   0.310  -0.310>

 orbital energies:
     0.3938449E+00 (  10.717eV) occ=1.000
     0.3938445E+00 (  10.717eV) occ=1.000
     0.3346296E+00 (   9.106eV) occ=1.000
     0.3346289E+00 (   9.106eV) occ=1.000
     0.3346286E+00 (   9.106eV) occ=1.000
     0.2980035E+00 (   8.109eV) occ=1.000
     0.2980029E+00 (   8.109eV) occ=1.000
     0.2980023E+00 (   8.109eV) occ=1.000
     0.1400800E+00 (   3.812eV) occ=1.000
     0.4453645E-01 (   1.212eV) occ=1.000
     0.4453624E-01 (   1.212eV) occ=1.000
     0.4453579E-01 (   1.212eV) occ=1.000
    -0.9133739E-01 (  -2.485eV) occ=1.000
    -0.9133809E-01 (  -2.485eV) occ=1.000
    -0.9133865E-01 (  -2.485eV) occ=1.000
    -0.1907761E+00 (  -5.191eV) occ=1.000

 Brillouin zone point:     10
    weight=  0.074074
    k     =<   0.333   0.333   0.000> . <b1,b2,b3> 
          =<   0.310   0.310   0.000>

 orbital energies:
     0.4277868E+00 (  11.641eV) occ=1.000
     0.3088135E+00 (   8.403eV) occ=1.000
     0.3049599E+00 (   8.298eV) occ=1.000
     0.3048742E+00 (   8.296eV) occ=1.000
     0.3048725E+00 (   8.296eV) occ=1.000
     0.2724206E+00 (   7.413eV) occ=1.000
     0.2147504E+00 (   5.844eV) occ=1.000
     0.2147501E+00 (   5.844eV) occ=1.000
     0.1639487E+00 (   4.461eV) occ=1.000
     0.1639484E+00 (   4.461eV) occ=1.000
     0.1406307E+00 (   3.827eV) occ=1.000
     0.8283073E-01 (   2.254eV) occ=1.000
    -0.3070808E-01 (  -0.836eV) occ=1.000
    -0.1200877E+00 (  -3.268eV) occ=1.000
    -0.1200885E+00 (  -3.268eV) occ=1.000
    -0.2267225E+00 (  -6.169eV) occ=1.000

 Brillouin zone point:     11
    weight=  0.074074
    k     =<   0.000   0.333   0.000> . <b1,b2,b3> 
          =<   0.000   0.310   0.000>

 orbital energies:
     0.3965845E+00 (  10.792eV) occ=1.000
     0.3851667E+00 (  10.481eV) occ=1.000
     0.3851663E+00 (  10.481eV) occ=1.000
     0.2863876E+00 (   7.793eV) occ=1.000
     0.2863873E+00 (   7.793eV) occ=1.000
     0.2185495E+00 (   5.947eV) occ=1.000
     0.1969198E+00 (   5.359eV) occ=1.000
     0.1969193E+00 (   5.358eV) occ=1.000
     0.1969192E+00 (   5.358eV) occ=1.000
     0.1969190E+00 (   5.358eV) occ=1.000
     0.3596160E-01 (   0.979eV) occ=1.000
     0.3596146E-01 (   0.979eV) occ=1.000
     0.3596102E-01 (   0.979eV) occ=1.000
     0.3596020E-01 (   0.979eV) occ=1.000
    -0.1541248E+00 (  -4.194eV) occ=1.000
    -0.2635223E+00 (  -7.171eV) occ=1.000

 Brillouin zone point:     12
    weight=  0.074074
    k     =<   0.333  -0.333   0.000> . <b1,b2,b3> 
          =<   0.310  -0.310   0.000>

 orbital energies:
     0.4277874E+00 (  11.641eV) occ=1.000
     0.3088139E+00 (   8.403eV) occ=1.000
     0.3049601E+00 (   8.298eV) occ=1.000
     0.3048729E+00 (   8.296eV) occ=1.000
     0.3048726E+00 (   8.296eV) occ=1.000
     0.2724198E+00 (   7.413eV) occ=1.000
     0.2147501E+00 (   5.844eV) occ=1.000
     0.2147500E+00 (   5.844eV) occ=1.000
     0.1639497E+00 (   4.461eV) occ=1.000
     0.1639491E+00 (   4.461eV) occ=1.000
     0.1406307E+00 (   3.827eV) occ=1.000
     0.8282990E-01 (   2.254eV) occ=1.000
    -0.3070768E-01 (  -0.836eV) occ=1.000
    -0.1200880E+00 (  -3.268eV) occ=1.000
    -0.1200884E+00 (  -3.268eV) occ=1.000
    -0.2267224E+00 (  -6.169eV) occ=1.000

 Brillouin zone point:     13
    weight=  0.074074
    k     =<   0.333   0.000   0.000> . <b1,b2,b3> 
          =<   0.310   0.000   0.000>

 orbital energies:
     0.3965845E+00 (  10.792eV) occ=1.000
     0.3851666E+00 (  10.481eV) occ=1.000
     0.3851664E+00 (  10.481eV) occ=1.000
     0.2863876E+00 (   7.793eV) occ=1.000
     0.2863873E+00 (   7.793eV) occ=1.000
     0.2185495E+00 (   5.947eV) occ=1.000
     0.1969197E+00 (   5.358eV) occ=1.000
     0.1969195E+00 (   5.358eV) occ=1.000
     0.1969192E+00 (   5.358eV) occ=1.000
     0.1969190E+00 (   5.358eV) occ=1.000
     0.3596189E-01 (   0.979eV) occ=1.000
     0.3596122E-01 (   0.979eV) occ=1.000
     0.3596061E-01 (   0.979eV) occ=1.000
     0.3596058E-01 (   0.979eV) occ=1.000
    -0.1541248E+00 (  -4.194eV) occ=1.000
    -0.2635223E+00 (  -7.171eV) occ=1.000

 Brillouin zone point:     14
    weight=  0.037037
    k     =<   0.000   0.000   0.000> . <b1,b2,b3> 
          =<   0.000   0.000   0.000>

 orbital energies:
     0.4775808E+00 (  12.996eV) occ=1.000
     0.4775804E+00 (  12.996eV) occ=1.000
     0.4775799E+00 (  12.996eV) occ=1.000
     0.2506793E+00 (   6.821eV) occ=1.000
     0.2506790E+00 (   6.821eV) occ=1.000
     0.2506787E+00 (   6.821eV) occ=1.000
     0.2506785E+00 (   6.821eV) occ=1.000
     0.2506784E+00 (   6.821eV) occ=1.000
     0.2506781E+00 (   6.821eV) occ=1.000
     0.1644628E-01 (   0.448eV) occ=1.000
     0.1644587E-01 (   0.448eV) occ=1.000
     0.1644581E-01 (   0.448eV) occ=1.000
     0.1644534E-01 (   0.448eV) occ=1.000
     0.1644460E-01 (   0.447eV) occ=1.000
     0.1644453E-01 (   0.447eV) occ=1.000
    -0.3008673E+00 (  -8.187eV) occ=1.000

 Total BAND energy   :  -0.4562008155E+02


=== Spin Contamination ===
 
 <Sexact^2> =   0.000000000000000E+000
 <S^2>      =   0.000000000000000E+000
 


========================
= Gradient calculation =
========================


Translation force removed: (    0.00000    0.00000    0.00000)


          =============  Ion Gradients =================
 Ion Forces:
        1 C    (    0.00000    0.00000    0.00000 )
        2 C    (    0.00000    0.00000    0.00000 )
        3 C    (    0.00000    0.00000    0.00001 )
        4 C    (    0.00000   -0.00001    0.00000 )
        5 C    (    0.00000   -0.00001    0.00000 )
        6 C    (    0.00000    0.00002   -0.00001 )
        7 C    (    0.00000   -0.00002    0.00000 )
        8 C    (   -0.00001    0.00002    0.00000 )
        C.O.M. (    0.00000    0.00000    0.00000 )
          ===============================================
          |F|       =   0.402752E-04
          |F|/nion  =   0.503440E-05
          max|Fatom|=   0.230299E-04 (   0.001eV/Angstrom)


 
 Generated formatted_stress_filename: ./perm/C.cpp2
 - Spline fitted, nray= 2641 -
 - filtered -


======================
= Stress calculation =
======================


          ============= total gradient ==============
      S =  (    0.02496    0.00001   -0.00001 )
           (    0.00001    0.02496    0.00001 )
           (   -0.00001    0.00001    0.02496 )
          ===================================================
          |S|      = 0.43226E-01
          pressure = 0.250E-01 au
                   = 0.734E+01 Mbar
                   = 0.734E+03 GPa
                   = 0.725E+07 atm

 
       dE/da     =     0.02496
       dE/db     =     0.02496
       dE/dc     =     0.02496
       dE/dalpha =    -0.00003
       dE/dbeta  =     0.00003
       dE/dgamma =    -0.00007
 
 
 Writing Crystallographic Information File:./perm/diamond-symmetry.cif
   - cell not shifted (nwpw:cif_shift_cell .false.)

 output psi filename:./perm/diamond-symmetry.movecs


== Timing ==

cputime in seconds
  prologue    :   0.427975E+01
  main loop   :   0.989196E+02
  epilogue    :   0.891153E+00
  total       :   0.104090E+03
  cputime/step:   0.369103E+00       (     268 evalulations,      96 linesearches)


Time spent doing                        total          step
  FFTs                       :   0.337523E+01  0.125941E-01
  dot products               :   0.277747E+02  0.103637E+00
  geodesic                   :   0.151329E+02  0.564661E-01
  ffm_dgemm                  :   0.000000E+00  0.000000E+00
  fmf_dgemm                  :   0.000000E+00  0.000000E+00
  m_diagonalize              :   0.000000E+00  0.000000E+00
    - m_tredq                :   0.000000E+00  0.000000E+00
       - m_tredq_houseq      :   0.000000E+00  0.000000E+00
       - m_tredq_houseq_dgemm:   0.000000E+00  0.000000E+00
       - m_tredq_dgemm1      :   0.000000E+00  0.000000E+00
    - m_getdiags             :   0.000000E+00  0.000000E+00
    - m_tqliq                :   0.000000E+00  0.000000E+00
    - m_eigsrt               :   0.000000E+00  0.000000E+00
  exchange correlation       :   0.395779E+01  0.147679E-01
  local pseudopotentials     :   0.669003E-02  0.249628E-04
  non-local pseudopotentials :   0.957433E+01  0.357251E-01
  hartree potentials         :   0.441365E-01  0.164689E-03
  ion-ion interaction        :   0.384918E+00  0.143626E-02
  structure factors          :   0.149378E+00  0.557379E-03
  phase factors              :   0.000000E+00  0.000000E+00
  masking and packing        :   0.350122E+01  0.130642E-01
  queue fft                  :   0.459349E+02  0.171399E+00
  queue fft (serial)         :   0.313189E+02  0.116862E+00
  queue fft (message passing):   0.132601E+02  0.494781E-01
  HFX potential              :   0.000000E+00  0.000000E+00
  qmmm LJ                    :   0.000000E+00  0.000000E+00
  qmmm residual Q            :   0.000000E+00  0.000000E+00
 
     >>>  JOB COMPLETED     AT Mon Jan 30 13:49:10 2012  <<<

@ Step       Energy      Delta E   Gmax     Grms     Xrms     Xmax   Walltime
@ ---- ---------------- -------- -------- -------- -------- -------- --------
@    0     -45.62008155  0.0D+00  0.02496  0.00789  0.00000  0.00000    105.1
                                                                    

          **********************************************************
          *                                                        *
          *                   NWPW BAND Calculation                *
          *                                                        *
          *  [(bundled Grassman/Stiefel manifold implementation)]  *
          *                                                        *
          *         [ NorthWest Chemistry implementation ]         *
          *                                                        *
          *                version #1.10   01/31/03                *
          *                                                        *
          *  A pseudopotential plane-wave band structure program   *
          *  with Brillouin zone sampling for optimizing crystals, *
          *  slabs, and polymers.  Developed by Eric J. Bylaska    *
          *  , Edoardo Apra, and Patrick Nichols.                  *
          *                                                        *
          **********************************************************
     >>>  JOB STARTED       AT Mon Jan 30 13:49:10 2012  <<<
          ================ input data ========================
 Brillioun Zone Vectors do not match!
 
 pseudopotential is not correctly formatted:
 C.cpp                                             
 
 pseudopotential is not correctly formatted---bad brillioun zone:
 C.cpp                                             
 
 Generated formatted_filename: ./perm/C.cpp
 - Spline fitted, nray= 2640 -
 - filtered -
 Error reading psi - bad unitcell
  - Ignored if the following  parameter is set
  - set nwpw:psi_nolattice .true.
 Error reading psi - bad unitcell
  - Ignored if the following  parameter is set
  - set nwpw:psi_nolattice .true.
 Error reading psi - bad unitcell
  - Ignored if the following  parameter is set
  - set nwpw:psi_nolattice .true.

 input psi filename:./perm/diamond-symmetry.movecs

 number of processors used:               4
 processor grid           :   1 x   1 x   4
 parallel mapping         :     2d  hilbert

 options:
      boundary conditions  = periodic    (version3)
      electron spin        = restricted
      exchange-correlation = PBE96 (White and Bird) parameterization

 elements involved in the cluster:
      1: C     core charge: 4.0  lmax=2
             comment    : Parameterized (J.Phys.Chem., vol 100, page 6966) Hamman psp
             pseudpotential type            :   0
             highest angular component      :   2
             local potential used           :   2
             number of non-local projections:   4
             cutoff =   0.800   0.850   0.850

 total charge:   0.000

 atomic composition:
     C   :  8

 number of electrons: spin up=   16.00  spin down=   16.00 (fourier space)
 number of orbitals:  spin up=      16  spin down=      16 (fourier space)

 supercell:
      lattice:    a1=<   6.751   0.000   0.000 >
                  a2=<   0.000   6.751   0.000 >
                  a3=<   0.000   0.000   6.751 >
      reciprocal: b1=<   0.931   0.000   0.000 >
                  b2=<   0.000   0.931   0.000 >
                  b3=<   0.000   0.000   0.931 >

      lattice:    a=   6.751    b=   6.751     c=   6.751
              alpha=  90.000 beta=  90.000 gamma=  90.000
      volume :      307.7
      ewald summation: cut radius=    3.00  and  8
                        madelung= 1.76011888

 brillouin zone:
      number of zone points:    14
      weight=   0.074  ks=<   0.333   0.333   0.333 >, k=<   0.310   0.310   0.310>
      weight=   0.074  ks=<   0.000   0.333   0.333 >, k=<   0.000   0.310   0.310>
      weight=   0.074  ks=<  -0.333   0.333   0.333 >, k=<  -0.310   0.310   0.310>
      weight=   0.074  ks=<   0.333   0.000   0.333 >, k=<   0.310   0.000   0.310>
      weight=   0.074  ks=<   0.000   0.000   0.333 >, k=<   0.000   0.000   0.310>
      weight=   0.074  ks=<   0.333   0.000  -0.333 >, k=<   0.310   0.000  -0.310>
      weight=   0.074  ks=<   0.333  -0.333   0.333 >, k=<   0.310  -0.310   0.310>
      weight=   0.074  ks=<   0.000   0.333  -0.333 >, k=<   0.000   0.310  -0.310>
      weight=   0.074  ks=<   0.333   0.333  -0.333 >, k=<   0.310   0.310  -0.310>
      weight=   0.074  ks=<   0.333   0.333   0.000 >, k=<   0.310   0.310   0.000>
      weight=   0.074  ks=<   0.000   0.333   0.000 >, k=<   0.000   0.310   0.000>
      weight=   0.074  ks=<   0.333  -0.333   0.000 >, k=<   0.310  -0.310   0.000>
      weight=   0.074  ks=<   0.333   0.000   0.000 >, k=<   0.310   0.000   0.000>
      weight=   0.037  ks=<   0.000   0.000   0.000 >, k=<   0.000   0.000   0.000>

 computational grids:
      density     cutoff= 70.000  fft=  28x  28x  28(     8709 waves     8709 per task)
      wavefnc   1 cutoff= 35.000  fft=  28x  28x  28(     3085 waves     3085 per task)
      wavefnc   2 cutoff= 35.000  fft=  28x  28x  28(     3045 waves     3045 per task)
      wavefnc   3 cutoff= 35.000  fft=  28x  28x  28(     3085 waves     3085 per task)
      wavefnc   4 cutoff= 35.000  fft=  28x  28x  28(     3045 waves     3045 per task)
      wavefnc   5 cutoff= 35.000  fft=  28x  28x  28(     3062 waves     3062 per task)
      wavefnc   6 cutoff= 35.000  fft=  28x  28x  28(     3045 waves     3045 per task)
      wavefnc   7 cutoff= 35.000  fft=  28x  28x  28(     3085 waves     3085 per task)
      wavefnc   8 cutoff= 35.000  fft=  28x  28x  28(     3045 waves     3045 per task)
      wavefnc   9 cutoff= 35.000  fft=  28x  28x  28(     3085 waves     3085 per task)
      wavefnc  10 cutoff= 35.000  fft=  28x  28x  28(     3045 waves     3045 per task)
      wavefnc  11 cutoff= 35.000  fft=  28x  28x  28(     3062 waves     3062 per task)
      wavefnc  12 cutoff= 35.000  fft=  28x  28x  28(     3045 waves     3045 per task)
      wavefnc  13 cutoff= 35.000  fft=  28x  28x  28(     3062 waves     3062 per task)
      wavefnc  14 cutoff= 35.000  fft=  28x  28x  28(     3071 waves     3071 per task)

 technical parameters:
      time step=      5.80     ficticious mass=  400000.0
      tolerance=.100E-06 (energy)   0.100E-06 (density)
      maximum iterations =      1000 (   10 inner    100 outer )



= energy calculation =


          ======== bundled Grassmann lmbfgs iteration ========
     >>>  ITERATION STARTED AT Mon Jan 30 13:49:13 2012  <<<
    iter.           Energy         DeltaE       DeltaRho 
    ------------------------------------------------------
      10   -0.4562104685E+02   -0.66904E-06    0.28904E-04
      20   -0.4562104771E+02   -0.94001E-07    0.32426E-08
  *** tolerance ok.    iteration terminated.
     >>>  ITERATION ENDED   AT Mon Jan 30 13:49:25 2012  <<<


          =============  summary of results  =================
 
 number of electrons: spin up=   16.00000  down=   16.00000 (real space)

 total     energy    :  -0.4562104771E+02 (   -0.57026E+01/ion)
 total orbital energy:   0.5004815264E+01 (    0.31280E+00/electron)
 hartree   energy    :   0.3883925230E+01 (    0.24275E+00/electron)
 exc-corr  energy    :  -0.1423884447E+02 (   -0.88993E+00/electron)
 ion-ion   energy    :  -0.5106596624E+02 (   -0.63832E+01/ion)

 K.S. kinetic energy :   0.3253295575E+02 (    0.20333E+01/electron)
 K.S. V_l  energy    :  -0.4854769035E+01 (   -0.30342E+00/electron)
 K.S. V_nl energy    :  -0.3403254301E+00 (   -0.21270E-01/electron)
 K.S. V_Hart energy  :   0.7767850459E+01 (    0.48549E+00/electron)
 K.S. V_xc energy    :  -0.1856287296E+02 (   -0.11602E+01/electron)
 K.S. V_so energy    :   0.0000000000E+00 (    0.00000E+00/electron)
 Virial Coefficient  :  -0.4915052012E+00

 Brillouin zone point:      1
    weight=  0.074074
    k     =<   0.333   0.333   0.333> . <b1,b2,b3> 
          =<   0.310   0.310   0.310>

 orbital energies:
     0.3973868E+00 (  10.814eV) occ=1.000
     0.3973867E+00 (  10.814eV) occ=1.000
     0.3378067E+00 (   9.192eV) occ=1.000
     0.3378066E+00 (   9.192eV) occ=1.000
     0.3378065E+00 (   9.192eV) occ=1.000
     0.3012291E+00 (   8.197eV) occ=1.000
     0.3012291E+00 (   8.197eV) occ=1.000
     0.3012290E+00 (   8.197eV) occ=1.000
     0.1426374E+00 (   3.881eV) occ=1.000
     0.4658038E-01 (   1.268eV) occ=1.000
     0.4658022E-01 (   1.268eV) occ=1.000
     0.4658015E-01 (   1.268eV) occ=1.000
    -0.8918870E-01 (  -2.427eV) occ=1.000
    -0.8918881E-01 (  -2.427eV) occ=1.000
    -0.8918893E-01 (  -2.427eV) occ=1.000
    -0.1892231E+00 (  -5.149eV) occ=1.000

 Brillouin zone point:      2
    weight=  0.074074
    k     =<   0.000   0.333   0.333> . <b1,b2,b3> 
          =<   0.000   0.310   0.310>

 orbital energies:
     0.4315400E+00 (  11.743eV) occ=1.000
     0.3118359E+00 (   8.486eV) occ=1.000
     0.3079816E+00 (   8.381eV) occ=1.000
     0.3078856E+00 (   8.378eV) occ=1.000
     0.3078856E+00 (   8.378eV) occ=1.000
     0.2757167E+00 (   7.503eV) occ=1.000
     0.2172879E+00 (   5.913eV) occ=1.000
     0.2172879E+00 (   5.913eV) occ=1.000
     0.1670194E+00 (   4.545eV) occ=1.000
     0.1670193E+00 (   4.545eV) occ=1.000
     0.1426363E+00 (   3.881eV) occ=1.000
     0.8553047E-01 (   2.327eV) occ=1.000
    -0.2822982E-01 (  -0.768eV) occ=1.000
    -0.1182055E+00 (  -3.217eV) occ=1.000
    -0.1182056E+00 (  -3.217eV) occ=1.000
    -0.2253477E+00 (  -6.132eV) occ=1.000

 Brillouin zone point:      3
    weight=  0.074074
    k     =<  -0.333   0.333   0.333> . <b1,b2,b3> 
          =<  -0.310   0.310   0.310>

 orbital energies:
     0.3973868E+00 (  10.814eV) occ=1.000
     0.3973866E+00 (  10.814eV) occ=1.000
     0.3378067E+00 (   9.192eV) occ=1.000
     0.3378066E+00 (   9.192eV) occ=1.000
     0.3378065E+00 (   9.192eV) occ=1.000
     0.3012291E+00 (   8.197eV) occ=1.000
     0.3012290E+00 (   8.197eV) occ=1.000
     0.3012289E+00 (   8.197eV) occ=1.000
     0.1426374E+00 (   3.881eV) occ=1.000
     0.4658039E-01 (   1.268eV) occ=1.000
     0.4658026E-01 (   1.268eV) occ=1.000
     0.4658013E-01 (   1.268eV) occ=1.000
    -0.8918870E-01 (  -2.427eV) occ=1.000
    -0.8918882E-01 (  -2.427eV) occ=1.000
    -0.8918892E-01 (  -2.427eV) occ=1.000
    -0.1892231E+00 (  -5.149eV) occ=1.000

 Brillouin zone point:      4
    weight=  0.074074
    k     =<   0.333   0.000   0.333> . <b1,b2,b3> 
          =<   0.310   0.000   0.310>

 orbital energies:
     0.4315401E+00 (  11.743eV) occ=1.000
     0.3118360E+00 (   8.486eV) occ=1.000
     0.3079817E+00 (   8.381eV) occ=1.000
     0.3078856E+00 (   8.378eV) occ=1.000
     0.3078855E+00 (   8.378eV) occ=1.000
     0.2757165E+00 (   7.503eV) occ=1.000
     0.2172879E+00 (   5.913eV) occ=1.000
     0.2172877E+00 (   5.913eV) occ=1.000
     0.1670196E+00 (   4.545eV) occ=1.000
     0.1670194E+00 (   4.545eV) occ=1.000
     0.1426363E+00 (   3.881eV) occ=1.000
     0.8553026E-01 (   2.327eV) occ=1.000
    -0.2822974E-01 (  -0.768eV) occ=1.000
    -0.1182055E+00 (  -3.217eV) occ=1.000
    -0.1182057E+00 (  -3.217eV) occ=1.000
    -0.2253477E+00 (  -6.132eV) occ=1.000

 Brillouin zone point:      5
    weight=  0.074074
    k     =<   0.000   0.000   0.333> . <b1,b2,b3> 
          =<   0.000   0.000   0.310>

 orbital energies:
     0.4005910E+00 (  10.901eV) occ=1.000
     0.3885917E+00 (  10.574eV) occ=1.000
     0.3885915E+00 (  10.574eV) occ=1.000
     0.2892617E+00 (   7.871eV) occ=1.000
     0.2892616E+00 (   7.871eV) occ=1.000
     0.2219833E+00 (   6.041eV) occ=1.000
     0.1992175E+00 (   5.421eV) occ=1.000
     0.1992156E+00 (   5.421eV) occ=1.000
     0.1992156E+00 (   5.421eV) occ=1.000
     0.1992156E+00 (   5.421eV) occ=1.000
     0.3868230E-01 (   1.053eV) occ=1.000
     0.3868109E-01 (   1.053eV) occ=1.000
     0.3868091E-01 (   1.053eV) occ=1.000
     0.3868080E-01 (   1.053eV) occ=1.000
    -0.1524286E+00 (  -4.148eV) occ=1.000
    -0.2623134E+00 (  -7.138eV) occ=1.000

 Brillouin zone point:      6
    weight=  0.074074
    k     =<   0.333   0.000  -0.333> . <b1,b2,b3> 
          =<   0.310   0.000  -0.310>

 orbital energies:
     0.4315400E+00 (  11.743eV) occ=1.000
     0.3118360E+00 (   8.486eV) occ=1.000
     0.3079816E+00 (   8.381eV) occ=1.000
     0.3078857E+00 (   8.378eV) occ=1.000
     0.3078854E+00 (   8.378eV) occ=1.000
     0.2757166E+00 (   7.503eV) occ=1.000
     0.2172879E+00 (   5.913eV) occ=1.000
     0.2172878E+00 (   5.913eV) occ=1.000
     0.1670194E+00 (   4.545eV) occ=1.000
     0.1670193E+00 (   4.545eV) occ=1.000
     0.1426363E+00 (   3.881eV) occ=1.000
     0.8553040E-01 (   2.327eV) occ=1.000
    -0.2822979E-01 (  -0.768eV) occ=1.000
    -0.1182055E+00 (  -3.217eV) occ=1.000
    -0.1182056E+00 (  -3.217eV) occ=1.000
    -0.2253477E+00 (  -6.132eV) occ=1.000

 Brillouin zone point:      7
    weight=  0.074074
    k     =<   0.333  -0.333   0.333> . <b1,b2,b3> 
          =<   0.310  -0.310   0.310>

 orbital energies:
     0.3973868E+00 (  10.814eV) occ=1.000
     0.3973867E+00 (  10.814eV) occ=1.000
     0.3378067E+00 (   9.192eV) occ=1.000
     0.3378066E+00 (   9.192eV) occ=1.000
     0.3378066E+00 (   9.192eV) occ=1.000
     0.3012290E+00 (   8.197eV) occ=1.000
     0.3012289E+00 (   8.197eV) occ=1.000
     0.3012288E+00 (   8.197eV) occ=1.000
     0.1426373E+00 (   3.881eV) occ=1.000
     0.4658043E-01 (   1.268eV) occ=1.000
     0.4658033E-01 (   1.268eV) occ=1.000
     0.4658022E-01 (   1.268eV) occ=1.000
    -0.8918872E-01 (  -2.427eV) occ=1.000
    -0.8918886E-01 (  -2.427eV) occ=1.000
    -0.8918894E-01 (  -2.427eV) occ=1.000
    -0.1892230E+00 (  -5.149eV) occ=1.000

 Brillouin zone point:      8
    weight=  0.074074
    k     =<   0.000   0.333  -0.333> . <b1,b2,b3> 
          =<   0.000   0.310  -0.310>

 orbital energies:
     0.4315401E+00 (  11.743eV) occ=1.000
     0.3118360E+00 (   8.486eV) occ=1.000
     0.3079817E+00 (   8.381eV) occ=1.000
     0.3078855E+00 (   8.378eV) occ=1.000
     0.3078855E+00 (   8.378eV) occ=1.000
     0.2757165E+00 (   7.503eV) occ=1.000
     0.2172878E+00 (   5.913eV) occ=1.000
     0.2172878E+00 (   5.913eV) occ=1.000
     0.1670196E+00 (   4.545eV) occ=1.000
     0.1670195E+00 (   4.545eV) occ=1.000
     0.1426363E+00 (   3.881eV) occ=1.000
     0.8553020E-01 (   2.327eV) occ=1.000
    -0.2822971E-01 (  -0.768eV) occ=1.000
    -0.1182055E+00 (  -3.217eV) occ=1.000
    -0.1182056E+00 (  -3.217eV) occ=1.000
    -0.2253477E+00 (  -6.132eV) occ=1.000

 Brillouin zone point:      9
    weight=  0.074074
    k     =<   0.333   0.333  -0.333> . <b1,b2,b3> 
          =<   0.310   0.310  -0.310>

 orbital energies:
     0.3973868E+00 (  10.814eV) occ=1.000
     0.3973867E+00 (  10.814eV) occ=1.000
     0.3378066E+00 (   9.192eV) occ=1.000
     0.3378066E+00 (   9.192eV) occ=1.000
     0.3378065E+00 (   9.192eV) occ=1.000
     0.3012292E+00 (   8.197eV) occ=1.000
     0.3012290E+00 (   8.197eV) occ=1.000
     0.3012289E+00 (   8.197eV) occ=1.000
     0.1426373E+00 (   3.881eV) occ=1.000
     0.4658037E-01 (   1.268eV) occ=1.000
     0.4658031E-01 (   1.268eV) occ=1.000
     0.4658014E-01 (   1.268eV) occ=1.000
    -0.8918869E-01 (  -2.427eV) occ=1.000
    -0.8918884E-01 (  -2.427eV) occ=1.000
    -0.8918893E-01 (  -2.427eV) occ=1.000
    -0.1892231E+00 (  -5.149eV) occ=1.000

 Brillouin zone point:     10
    weight=  0.074074
    k     =<   0.333   0.333   0.000> . <b1,b2,b3> 
          =<   0.310   0.310   0.000>

 orbital energies:
     0.4315400E+00 (  11.743eV) occ=1.000
     0.3118359E+00 (   8.486eV) occ=1.000
     0.3079816E+00 (   8.381eV) occ=1.000
     0.3078857E+00 (   8.378eV) occ=1.000
     0.3078855E+00 (   8.378eV) occ=1.000
     0.2757166E+00 (   7.503eV) occ=1.000
     0.2172879E+00 (   5.913eV) occ=1.000
     0.2172878E+00 (   5.913eV) occ=1.000
     0.1670194E+00 (   4.545eV) occ=1.000
     0.1670193E+00 (   4.545eV) occ=1.000
     0.1426363E+00 (   3.881eV) occ=1.000
     0.8553039E-01 (   2.327eV) occ=1.000
    -0.2822979E-01 (  -0.768eV) occ=1.000
    -0.1182055E+00 (  -3.217eV) occ=1.000
    -0.1182056E+00 (  -3.217eV) occ=1.000
    -0.2253477E+00 (  -6.132eV) occ=1.000

 Brillouin zone point:     11
    weight=  0.074074
    k     =<   0.000   0.333   0.000> . <b1,b2,b3> 
          =<   0.000   0.310   0.000>

 orbital energies:
     0.4005910E+00 (  10.901eV) occ=1.000
     0.3885916E+00 (  10.574eV) occ=1.000
     0.3885915E+00 (  10.574eV) occ=1.000
     0.2892617E+00 (   7.871eV) occ=1.000
     0.2892616E+00 (   7.871eV) occ=1.000
     0.2219833E+00 (   6.041eV) occ=1.000
     0.1992176E+00 (   5.421eV) occ=1.000
     0.1992157E+00 (   5.421eV) occ=1.000
     0.1992156E+00 (   5.421eV) occ=1.000
     0.1992155E+00 (   5.421eV) occ=1.000
     0.3868236E-01 (   1.053eV) occ=1.000
     0.3868113E-01 (   1.053eV) occ=1.000
     0.3868091E-01 (   1.053eV) occ=1.000
     0.3868081E-01 (   1.053eV) occ=1.000
    -0.1524286E+00 (  -4.148eV) occ=1.000
    -0.2623134E+00 (  -7.138eV) occ=1.000

 Brillouin zone point:     12
    weight=  0.074074
    k     =<   0.333  -0.333   0.000> . <b1,b2,b3> 
          =<   0.310  -0.310   0.000>

 orbital energies:
     0.4315402E+00 (  11.743eV) occ=1.000
     0.3118360E+00 (   8.486eV) occ=1.000
     0.3079816E+00 (   8.381eV) occ=1.000
     0.3078855E+00 (   8.378eV) occ=1.000
     0.3078855E+00 (   8.378eV) occ=1.000
     0.2757165E+00 (   7.503eV) occ=1.000
     0.2172879E+00 (   5.913eV) occ=1.000
     0.2172878E+00 (   5.913eV) occ=1.000
     0.1670196E+00 (   4.545eV) occ=1.000
     0.1670194E+00 (   4.545eV) occ=1.000
     0.1426363E+00 (   3.881eV) occ=1.000
     0.8553027E-01 (   2.327eV) occ=1.000
    -0.2822973E-01 (  -0.768eV) occ=1.000
    -0.1182055E+00 (  -3.217eV) occ=1.000
    -0.1182056E+00 (  -3.217eV) occ=1.000
    -0.2253477E+00 (  -6.132eV) occ=1.000

 Brillouin zone point:     13
    weight=  0.074074
    k     =<   0.333   0.000   0.000> . <b1,b2,b3> 
          =<   0.310   0.000   0.000>

 orbital energies:
     0.4005910E+00 (  10.901eV) occ=1.000
     0.3885917E+00 (  10.574eV) occ=1.000
     0.3885915E+00 (  10.574eV) occ=1.000
     0.2892617E+00 (   7.871eV) occ=1.000
     0.2892615E+00 (   7.871eV) occ=1.000
     0.2219833E+00 (   6.041eV) occ=1.000
     0.1992176E+00 (   5.421eV) occ=1.000
     0.1992156E+00 (   5.421eV) occ=1.000
     0.1992156E+00 (   5.421eV) occ=1.000
     0.1992155E+00 (   5.421eV) occ=1.000
     0.3868241E-01 (   1.053eV) occ=1.000
     0.3868102E-01 (   1.053eV) occ=1.000
     0.3868092E-01 (   1.053eV) occ=1.000
     0.3868085E-01 (   1.053eV) occ=1.000
    -0.1524286E+00 (  -4.148eV) occ=1.000
    -0.2623134E+00 (  -7.138eV) occ=1.000

 Brillouin zone point:     14
    weight=  0.037037
    k     =<   0.000   0.000   0.000> . <b1,b2,b3> 
          =<   0.000   0.000   0.000>

 orbital energies:
     0.4816104E+00 (  13.105eV) occ=1.000
     0.4816104E+00 (  13.105eV) occ=1.000
     0.4816102E+00 (  13.105eV) occ=1.000
     0.2533646E+00 (   6.894eV) occ=1.000
     0.2533646E+00 (   6.894eV) occ=1.000
     0.2533645E+00 (   6.894eV) occ=1.000
     0.2533645E+00 (   6.894eV) occ=1.000
     0.2533645E+00 (   6.894eV) occ=1.000
     0.2533644E+00 (   6.894eV) occ=1.000
     0.1894007E-01 (   0.515eV) occ=1.000
     0.1893992E-01 (   0.515eV) occ=1.000
     0.1893826E-01 (   0.515eV) occ=1.000
     0.1893809E-01 (   0.515eV) occ=1.000
     0.1893803E-01 (   0.515eV) occ=1.000
     0.1893796E-01 (   0.515eV) occ=1.000
    -0.2998204E+00 (  -8.159eV) occ=1.000

 Total BAND energy   :  -0.4562104771E+02


=== Spin Contamination ===
 
 <Sexact^2> =   0.000000000000000E+000
 <S^2>      =   0.000000000000000E+000
 
 
 Writing Crystallographic Information File:./perm/diamond-symmetry.cif
   - cell not shifted (nwpw:cif_shift_cell .false.)

 output psi filename:./perm/diamond-symmetry.movecs


== Timing ==

cputime in seconds
  prologue    :   0.312648E+01
  main loop   :   0.116925E+02
  epilogue    :   0.893884E+00
  total       :   0.157129E+02
  cputime/step:   0.365391E+00       (      32 evalulations,      14 linesearches)


Time spent doing                        total          step
  FFTs                       :   0.403899E+00  0.126219E-01
  dot products               :   0.336620E+01  0.105194E+00
  geodesic                   :   0.198876E+01  0.621489E-01
  ffm_dgemm                  :   0.000000E+00  0.000000E+00
  fmf_dgemm                  :   0.000000E+00  0.000000E+00
  m_diagonalize              :   0.000000E+00  0.000000E+00
    - m_tredq                :   0.000000E+00  0.000000E+00
       - m_tredq_houseq      :   0.000000E+00  0.000000E+00
       - m_tredq_houseq_dgemm:   0.000000E+00  0.000000E+00
       - m_tredq_dgemm1      :   0.000000E+00  0.000000E+00
    - m_getdiags             :   0.000000E+00  0.000000E+00
    - m_tqliq                :   0.000000E+00  0.000000E+00
    - m_eigsrt               :   0.000000E+00  0.000000E+00
  exchange correlation       :   0.471040E+00  0.147200E-01
  local pseudopotentials     :   0.791073E-03  0.247210E-04
  non-local pseudopotentials :   0.113525E+01  0.354766E-01
  hartree potentials         :   0.648451E-02  0.202641E-03
  ion-ion interaction        :   0.594120E-01  0.185663E-02
  structure factors          :   0.184102E-01  0.575319E-03
  phase factors              :   0.000000E+00  0.000000E+00
  masking and packing        :   0.430936E+00  0.134667E-01
  queue fft                  :   0.549662E+01  0.171770E+00
  queue fft (serial)         :   0.375272E+01  0.117272E+00
  queue fft (message passing):   0.158285E+01  0.494641E-01
  HFX potential              :   0.000000E+00  0.000000E+00
  qmmm LJ                    :   0.000000E+00  0.000000E+00
  qmmm residual Q            :   0.000000E+00  0.000000E+00
 
     >>>  JOB COMPLETED     AT Mon Jan 30 13:49:26 2012  <<<
 Line search: 
     step= 1.00 grad=-1.1D-03 hess= 8.6D-05 energy=    -45.621048 mode=restrict
 new step= 4.00                   predicted energy=    -45.622919

          --------
          Step   1
          --------
 
 
                         Geometry "geometry" -> "geometry"
                         ---------------------------------
 
 Output coordinates in angstroms (scale by  1.889725989 to convert to a.u.)
 
  No.       Tag          Charge          X              Y              Z
 ---- ---------------- ---------- -------------- -------------- --------------
    1 C                    6.0000     0.00000000     0.00000000     0.00000000
    2 C                    6.0000     0.00000000     1.77513229     1.77513229
    3 C                    6.0000     1.77513229     1.77513229     0.00000000
    4 C                    6.0000     1.77513229     0.00000000     1.77513229
    5 C                    6.0000     2.66269843     0.88756614     2.66269843
    6 C                    6.0000     0.88756614     0.88756614     0.88756614
    7 C                    6.0000     0.88756614     2.66269843     2.66269843
    8 C                    6.0000     2.66269843     2.66269843     0.88756614
 
      Lattice Parameters 
      ------------------ 
 
      lattice vectors in angstroms (scale by  1.889725989 to convert to a.u.)
 
      a1=<   3.550   0.000   0.000 >
      a2=<   0.000   3.550   0.000 >
      a3=<   0.000   0.000   3.550 >
      a=       3.550 b=      3.550 c=       3.550
      alpha=  90.000 beta=  90.000 gamma=  90.000
      omega=    44.7
 
      reciprocal lattice vectors in a.u.
 
      b1=<   0.937   0.000   0.000 >
      b2=<   0.000   0.937   0.000 >
      b3=<   0.000   0.000   0.937 >
 
      Atomic Mass 
      ----------- 
 
      C                 12.000000
 
 
      Symmetry information
      --------------------
 
 Group name                  Fd-3m
 Group number            227
 Group order             192
 No. of unique centers     1
 Setting number            1
 
      Symmetry unique atoms
 
     1
 
          **********************************************************
          *                                                        *
          *                   NWPW BAND Calculation                *
          *                                                        *
          *  [(bundled Grassman/Stiefel manifold implementation)]  *
          *                                                        *
          *         [ NorthWest Chemistry implementation ]         *
          *                                                        *
          *                version #1.10   01/31/03                *
          *                                                        *
          *  A pseudopotential plane-wave band structure program   *
          *  with Brillouin zone sampling for optimizing crystals, *
          *  slabs, and polymers.  Developed by Eric J. Bylaska    *
          *  , Edoardo Apra, and Patrick Nichols.                  *
          *                                                        *
          **********************************************************
     >>>  JOB STARTED       AT Mon Jan 30 13:49:27 2012  <<<
          ================ input data ========================
 Brillioun Zone Vectors do not match!
 
 pseudopotential is not correctly formatted:
 C.cpp                                             
 
 pseudopotential is not correctly formatted---bad brillioun zone:
 C.cpp                                             
 
 Generated formatted_filename: ./perm/C.cpp
 - Spline fitted, nray= 2639 -
 - filtered -
 Error reading psi - bad unitcell
  - Ignored if the following  parameter is set
  - set nwpw:psi_nolattice .true.
 Error reading psi - bad unitcell
  - Ignored if the following  parameter is set
  - set nwpw:psi_nolattice .true.
 Error reading psi - bad unitcell
  - Ignored if the following  parameter is set
  - set nwpw:psi_nolattice .true.

 input psi filename:./perm/diamond-symmetry.movecs
Warning - Orthogonalization performed, spin,zone: 1   1
        - error(before)=  0.211152E-04 (  0.160000E+02)
        - error(after)=   0.355271E-14 (  0.160000E+02)
Warning - Orthogonalization performed, spin,zone: 1   2
        - error(before)=  0.172330E-04 (  0.160000E+02)
        - error(after)=   0.177636E-14 (  0.160000E+02)
Warning - Orthogonalization performed, spin,zone: 1   3
        - error(before)=  0.211151E-04 (  0.160000E+02)
        - error(after)=   0.106581E-13 (  0.160000E+02)
Warning - Orthogonalization performed, spin,zone: 1   4
        - error(before)=  0.172329E-04 (  0.160000E+02)
        - error(after)=   0.532907E-14 (  0.160000E+02)
Warning - Orthogonalization performed, spin,zone: 1   5
        - error(before)=  0.198063E-04 (  0.160000E+02)
        - error(after)=   0.142109E-13 (  0.160000E+02)
Warning - Orthogonalization performed, spin,zone: 1   6
        - error(before)=  0.172329E-04 (  0.160000E+02)
        - error(after)=   0.000000E+00 (  0.160000E+02)
Warning - Orthogonalization performed, spin,zone: 1   7
        - error(before)=  0.211152E-04 (  0.160000E+02)
        - error(after)=   0.355271E-14 (  0.160000E+02)
Warning - Orthogonalization performed, spin,zone: 1   8
        - error(before)=  0.172330E-04 (  0.160000E+02)
        - error(after)=   0.000000E+00 (  0.160000E+02)
Warning - Orthogonalization performed, spin,zone: 1   9
        - error(before)=  0.211151E-04 (  0.160000E+02)
        - error(after)=   0.177636E-14 (  0.160000E+02)
Warning - Orthogonalization performed, spin,zone: 1  10
        - error(before)=  0.172330E-04 (  0.160000E+02)
        - error(after)=   0.355271E-14 (  0.160000E+02)
Warning - Orthogonalization performed, spin,zone: 1  11
        - error(before)=  0.197994E-04 (  0.160000E+02)
        - error(after)=   0.000000E+00 (  0.160000E+02)
Warning - Orthogonalization performed, spin,zone: 1  12
        - error(before)=  0.172329E-04 (  0.160000E+02)
        - error(after)=   0.532907E-14 (  0.160000E+02)
Warning - Orthogonalization performed, spin,zone: 1  13
        - error(before)=  0.197994E-04 (  0.160000E+02)
        - error(after)=   0.710543E-14 (  0.160000E+02)
Warning - Orthogonalization performed, spin,zone: 1  14
        - error(before)=  0.279296E-04 (  0.160000E+02)
        - error(after)=   0.355271E-14 (  0.160000E+02)

 number of processors used:               4
 processor grid           :   1 x   1 x   4
 parallel mapping         :     2d  hilbert

 options:
      boundary conditions  = periodic    (version3)
      electron spin        = restricted
      exchange-correlation = PBE96 (White and Bird) parameterization

 elements involved in the cluster:
      1: C     core charge: 4.0  lmax=2
             comment    : Parameterized (J.Phys.Chem., vol 100, page 6966) Hamman psp
             pseudpotential type            :   0
             highest angular component      :   2
             local potential used           :   2
             number of non-local projections:   4
             cutoff =   0.800   0.850   0.850

 total charge:   0.000

 atomic composition:
     C   :  8

 number of electrons: spin up=   16.00  spin down=   16.00 (fourier space)
 number of orbitals:  spin up=      16  spin down=      16 (fourier space)

 supercell:
      lattice:    a1=<   6.709   0.000   0.000 >
                  a2=<   0.000   6.709   0.000 >
                  a3=<   0.000   0.000   6.709 >
      reciprocal: b1=<   0.937   0.000   0.000 >
                  b2=<   0.000   0.937   0.000 >
                  b3=<   0.000   0.000   0.937 >

      lattice:    a=   6.709    b=   6.709     c=   6.709
              alpha=  90.000 beta=  90.000 gamma=  90.000
      volume :      302.0
      ewald summation: cut radius=    3.00  and  8
                        madelung= 1.76011888

 brillouin zone:
      number of zone points:    14
      weight=   0.074  ks=<   0.333   0.333   0.333 >, k=<   0.312   0.312   0.312>
      weight=   0.074  ks=<   0.000   0.333   0.333 >, k=<   0.000   0.312   0.312>
      weight=   0.074  ks=<  -0.333   0.333   0.333 >, k=<  -0.312   0.312   0.312>
      weight=   0.074  ks=<   0.333   0.000   0.333 >, k=<   0.312   0.000   0.312>
      weight=   0.074  ks=<   0.000   0.000   0.333 >, k=<   0.000   0.000   0.312>
      weight=   0.074  ks=<   0.333   0.000  -0.333 >, k=<   0.312   0.000  -0.312>
      weight=   0.074  ks=<   0.333  -0.333   0.333 >, k=<   0.312  -0.312   0.312>
      weight=   0.074  ks=<   0.000   0.333  -0.333 >, k=<   0.000   0.312  -0.312>
      weight=   0.074  ks=<   0.333   0.333  -0.333 >, k=<   0.312   0.312  -0.312>
      weight=   0.074  ks=<   0.333   0.333   0.000 >, k=<   0.312   0.312   0.000>
      weight=   0.074  ks=<   0.000   0.333   0.000 >, k=<   0.000   0.312   0.000>
      weight=   0.074  ks=<   0.333  -0.333   0.000 >, k=<   0.312  -0.312   0.000>
      weight=   0.074  ks=<   0.333   0.000   0.000 >, k=<   0.312   0.000   0.000>
      weight=   0.037  ks=<   0.000   0.000   0.000 >, k=<   0.000   0.000   0.000>

 computational grids:
      density     cutoff= 70.000  fft=  28x  28x  28(     8385 waves     8385 per task)
      wavefnc   1 cutoff= 35.000  fft=  28x  28x  28(     3007 waves     3007 per task)
      wavefnc   2 cutoff= 35.000  fft=  28x  28x  28(     2984 waves     2984 per task)
      wavefnc   3 cutoff= 35.000  fft=  28x  28x  28(     3007 waves     3007 per task)
      wavefnc   4 cutoff= 35.000  fft=  28x  28x  28(     2984 waves     2984 per task)
      wavefnc   5 cutoff= 35.000  fft=  28x  28x  28(     2986 waves     2986 per task)
      wavefnc   6 cutoff= 35.000  fft=  28x  28x  28(     2984 waves     2984 per task)
      wavefnc   7 cutoff= 35.000  fft=  28x  28x  28(     3007 waves     3007 per task)
      wavefnc   8 cutoff= 35.000  fft=  28x  28x  28(     2984 waves     2984 per task)
      wavefnc   9 cutoff= 35.000  fft=  28x  28x  28(     3007 waves     3007 per task)
      wavefnc  10 cutoff= 35.000  fft=  28x  28x  28(     2984 waves     2984 per task)
      wavefnc  11 cutoff= 35.000  fft=  28x  28x  28(     2986 waves     2986 per task)
      wavefnc  12 cutoff= 35.000  fft=  28x  28x  28(     2984 waves     2984 per task)
      wavefnc  13 cutoff= 35.000  fft=  28x  28x  28(     2986 waves     2986 per task)
      wavefnc  14 cutoff= 35.000  fft=  28x  28x  28(     2945 waves     2945 per task)

 technical parameters:
      time step=      5.80     ficticious mass=  400000.0
      tolerance=.100E-06 (energy)   0.100E-06 (density)
      maximum iterations =      1000 (   10 inner    100 outer )



= energy calculation =


          ======== bundled Grassmann lmbfgs iteration ========
     >>>  ITERATION STARTED AT Mon Jan 30 13:49:29 2012  <<<
    iter.           Energy         DeltaE       DeltaRho 
    ------------------------------------------------------
      10   -0.4562165305E+02   -0.53689E-05    0.26623E-03
      20   -0.4562166129E+02   -0.81923E-07    0.29101E-07
  *** tolerance ok.    iteration terminated.
     >>>  ITERATION ENDED   AT Mon Jan 30 13:49:44 2012  <<<


          =============  summary of results  =================
 
 number of electrons: spin up=   16.00000  down=   16.00000 (real space)

 total     energy    :  -0.4562166129E+02 (   -0.57027E+01/ion)
 total orbital energy:   0.5266795228E+01 (    0.32917E+00/electron)
 hartree   energy    :   0.3845737043E+01 (    0.24036E+00/electron)
 exc-corr  energy    :  -0.1430039634E+02 (   -0.89377E+00/electron)
 ion-ion   energy    :  -0.5138674550E+02 (   -0.64233E+01/ion)

 K.S. kinetic energy :   0.3277517677E+02 (    0.20484E+01/electron)
 K.S. V_l  energy    :  -0.4792338997E+01 (   -0.29952E+00/electron)
 K.S. V_nl energy    :  -0.3749272094E+00 (   -0.23433E-01/electron)
 K.S. V_Hart energy  :   0.7691474087E+01 (    0.48072E+00/electron)
 K.S. V_xc energy    :  -0.1864442236E+02 (   -0.11653E+01/electron)
 K.S. V_so energy    :   0.0000000000E+00 (    0.00000E+00/electron)
 Virial Coefficient  :  -0.4918421826E+00

 Brillouin zone point:      1
    weight=  0.074074
    k     =<   0.333   0.333   0.333> . <b1,b2,b3> 
          =<   0.312   0.312   0.312>

 orbital energies:
     0.4082610E+00 (  11.109eV) occ=1.000
     0.4082609E+00 (  11.109eV) occ=1.000
     0.3475246E+00 (   9.457eV) occ=1.000
     0.3475246E+00 (   9.457eV) occ=1.000
     0.3475246E+00 (   9.457eV) occ=1.000
     0.3110788E+00 (   8.465eV) occ=1.000
     0.3110787E+00 (   8.465eV) occ=1.000
     0.3110787E+00 (   8.465eV) occ=1.000
     0.1504342E+00 (   4.094eV) occ=1.000
     0.5283060E-01 (   1.438eV) occ=1.000
     0.5283059E-01 (   1.438eV) occ=1.000
     0.5283055E-01 (   1.438eV) occ=1.000
    -0.8264614E-01 (  -2.249eV) occ=1.000
    -0.8264615E-01 (  -2.249eV) occ=1.000
    -0.8264616E-01 (  -2.249eV) occ=1.000
    -0.1844997E+00 (  -5.021eV) occ=1.000

 Brillouin zone point:      2
    weight=  0.074074
    k     =<   0.000   0.333   0.333> . <b1,b2,b3> 
          =<   0.000   0.312   0.312>

 orbital energies:
     0.4430507E+00 (  12.056eV) occ=1.000
     0.3210242E+00 (   8.736eV) occ=1.000
     0.3172616E+00 (   8.633eV) occ=1.000
     0.3170956E+00 (   8.629eV) occ=1.000
     0.3170956E+00 (   8.629eV) occ=1.000
     0.2857578E+00 (   7.776eV) occ=1.000
     0.2250629E+00 (   6.124eV) occ=1.000
     0.2250629E+00 (   6.124eV) occ=1.000
     0.1763660E+00 (   4.799eV) occ=1.000
     0.1763660E+00 (   4.799eV) occ=1.000
     0.1487799E+00 (   4.049eV) occ=1.000
     0.9373795E-01 (   2.551eV) occ=1.000
    -0.2068539E-01 (  -0.563eV) occ=1.000
    -0.1124835E+00 (  -3.061eV) occ=1.000
    -0.1124835E+00 (  -3.061eV) occ=1.000
    -0.2211574E+00 (  -6.018eV) occ=1.000

 Brillouin zone point:      3
    weight=  0.074074
    k     =<  -0.333   0.333   0.333> . <b1,b2,b3> 
          =<  -0.312   0.312   0.312>

 orbital energies:
     0.4082610E+00 (  11.109eV) occ=1.000
     0.4082609E+00 (  11.109eV) occ=1.000
[...]
    -0.1434556E+00 (  -3.904eV) occ=1.000
    -0.2559207E+00 (  -6.964eV) occ=1.000

 Brillouin zone point:      6
    weight=  0.074074
    k     =<   0.333   0.000  -0.333> . <b1,b2,b3> 
          =<   0.314   0.000  -0.314>

 orbital energies:
     0.4513946E+00 (  12.283eV) occ=1.000
     0.3278250E+00 (   8.921eV) occ=1.000
     0.3240002E+00 (   8.817eV) occ=1.000
     0.3238022E+00 (   8.811eV) occ=1.000
     0.3238022E+00 (   8.811eV) occ=1.000
     0.2930749E+00 (   7.975eV) occ=1.000
     0.2307298E+00 (   6.279eV) occ=1.000
     0.2307298E+00 (   6.279eV) occ=1.000
     0.1831849E+00 (   4.985eV) occ=1.000
     0.1831849E+00 (   4.985eV) occ=1.000
     0.1532545E+00 (   4.170eV) occ=1.000
     0.9973063E-01 (   2.714eV) occ=1.000
    -0.1519990E-01 (  -0.414eV) occ=1.000
    -0.1083084E+00 (  -2.947eV) occ=1.000
    -0.1083084E+00 (  -2.947eV) occ=1.000
    -0.2181011E+00 (  -5.935eV) occ=1.000

 Brillouin zone point:      7
    weight=  0.074074
    k     =<   0.333  -0.333   0.333> . <b1,b2,b3> 
          =<   0.314  -0.314   0.314>

 orbital energies:
     0.4161155E+00 (  11.323eV) occ=1.000
     0.4161155E+00 (  11.323eV) occ=1.000
     0.3546684E+00 (   9.651eV) occ=1.000
     0.3546684E+00 (   9.651eV) occ=1.000
     0.3546684E+00 (   9.651eV) occ=1.000
     0.3183391E+00 (   8.663eV) occ=1.000
     0.3183391E+00 (   8.663eV) occ=1.000
     0.3183391E+00 (   8.663eV) occ=1.000
     0.1561053E+00 (   4.248eV) occ=1.000
     0.5737621E-01 (   1.561eV) occ=1.000
     0.5737621E-01 (   1.561eV) occ=1.000
     0.5737621E-01 (   1.561eV) occ=1.000
    -0.7787711E-01 (  -2.119eV) occ=1.000
    -0.7787711E-01 (  -2.119eV) occ=1.000
    -0.7787711E-01 (  -2.119eV) occ=1.000
    -0.1810555E+00 (  -4.927eV) occ=1.000

 Brillouin zone point:      8
    weight=  0.074074
    k     =<   0.000   0.333  -0.333> . <b1,b2,b3> 
          =<   0.000   0.314  -0.314>

 orbital energies:
     0.4513946E+00 (  12.283eV) occ=1.000
     0.3278250E+00 (   8.921eV) occ=1.000
     0.3240002E+00 (   8.817eV) occ=1.000
     0.3238022E+00 (   8.811eV) occ=1.000
     0.3238022E+00 (   8.811eV) occ=1.000
     0.2930749E+00 (   7.975eV) occ=1.000
     0.2307298E+00 (   6.279eV) occ=1.000
     0.2307298E+00 (   6.279eV) occ=1.000
     0.1831849E+00 (   4.985eV) occ=1.000
     0.1831849E+00 (   4.985eV) occ=1.000
     0.1532545E+00 (   4.170eV) occ=1.000
     0.9973063E-01 (   2.714eV) occ=1.000
    -0.1519990E-01 (  -0.414eV) occ=1.000
    -0.1083084E+00 (  -2.947eV) occ=1.000
    -0.1083084E+00 (  -2.947eV) occ=1.000
    -0.2181011E+00 (  -5.935eV) occ=1.000

 Brillouin zone point:      9
    weight=  0.074074
    k     =<   0.333   0.333  -0.333> . <b1,b2,b3> 
          =<   0.314   0.314  -0.314>

 orbital energies:
     0.4161155E+00 (  11.323eV) occ=1.000
     0.4161155E+00 (  11.323eV) occ=1.000
     0.3546684E+00 (   9.651eV) occ=1.000
     0.3546684E+00 (   9.651eV) occ=1.000
     0.3546684E+00 (   9.651eV) occ=1.000
     0.3183391E+00 (   8.663eV) occ=1.000
     0.3183391E+00 (   8.663eV) occ=1.000
     0.3183391E+00 (   8.663eV) occ=1.000
     0.1561053E+00 (   4.248eV) occ=1.000
     0.5737621E-01 (   1.561eV) occ=1.000
     0.5737621E-01 (   1.561eV) occ=1.000
     0.5737621E-01 (   1.561eV) occ=1.000
    -0.7787711E-01 (  -2.119eV) occ=1.000
    -0.7787711E-01 (  -2.119eV) occ=1.000
    -0.7787711E-01 (  -2.119eV) occ=1.000
    -0.1810555E+00 (  -4.927eV) occ=1.000

 Brillouin zone point:     10
    weight=  0.074074
    k     =<   0.333   0.333   0.000> . <b1,b2,b3> 
          =<   0.314   0.314   0.000>

 orbital energies:
     0.4513946E+00 (  12.283eV) occ=1.000
     0.3278250E+00 (   8.921eV) occ=1.000
     0.3240002E+00 (   8.817eV) occ=1.000
     0.3238022E+00 (   8.811eV) occ=1.000
     0.3238022E+00 (   8.811eV) occ=1.000
     0.2930749E+00 (   7.975eV) occ=1.000
     0.2307298E+00 (   6.279eV) occ=1.000
     0.2307298E+00 (   6.279eV) occ=1.000
     0.1831849E+00 (   4.985eV) occ=1.000
     0.1831849E+00 (   4.985eV) occ=1.000
     0.1532545E+00 (   4.170eV) occ=1.000
     0.9973063E-01 (   2.714eV) occ=1.000
    -0.1519990E-01 (  -0.414eV) occ=1.000
    -0.1083084E+00 (  -2.947eV) occ=1.000
    -0.1083084E+00 (  -2.947eV) occ=1.000
    -0.2181011E+00 (  -5.935eV) occ=1.000

 Brillouin zone point:     11
    weight=  0.074074
    k     =<   0.000   0.333   0.000> . <b1,b2,b3> 
          =<   0.000   0.314   0.000>

 orbital energies:
     0.4217990E+00 (  11.478eV) occ=1.000
     0.4067741E+00 (  11.069eV) occ=1.000
     0.4067741E+00 (  11.069eV) occ=1.000
     0.3045557E+00 (   8.287eV) occ=1.000
     0.3045557E+00 (   8.287eV) occ=1.000
     0.2400965E+00 (   6.533eV) occ=1.000
     0.2113261E+00 (   5.751eV) occ=1.000
     0.2113261E+00 (   5.751eV) occ=1.000
     0.2113261E+00 (   5.751eV) occ=1.000
     0.2113261E+00 (   5.751eV) occ=1.000
     0.5299037E-01 (   1.442eV) occ=1.000
     0.5299037E-01 (   1.442eV) occ=1.000
     0.5299037E-01 (   1.442eV) occ=1.000
     0.5299037E-01 (   1.442eV) occ=1.000
    -0.1434556E+00 (  -3.904eV) occ=1.000
    -0.2559207E+00 (  -6.964eV) occ=1.000

 Brillouin zone point:     12
    weight=  0.074074
    k     =<   0.333  -0.333   0.000> . <b1,b2,b3> 
          =<   0.314  -0.314   0.000>

 orbital energies:
     0.4513946E+00 (  12.283eV) occ=1.000
     0.3278250E+00 (   8.921eV) occ=1.000
     0.3240002E+00 (   8.817eV) occ=1.000
     0.3238022E+00 (   8.811eV) occ=1.000
     0.3238022E+00 (   8.811eV) occ=1.000
     0.2930749E+00 (   7.975eV) occ=1.000
     0.2307298E+00 (   6.279eV) occ=1.000
     0.2307298E+00 (   6.279eV) occ=1.000
     0.1831849E+00 (   4.985eV) occ=1.000
     0.1831849E+00 (   4.985eV) occ=1.000
     0.1532545E+00 (   4.170eV) occ=1.000
     0.9973063E-01 (   2.714eV) occ=1.000
    -0.1519990E-01 (  -0.414eV) occ=1.000
    -0.1083084E+00 (  -2.947eV) occ=1.000
    -0.1083084E+00 (  -2.947eV) occ=1.000
    -0.2181011E+00 (  -5.935eV) occ=1.000

 Brillouin zone point:     13
    weight=  0.074074
    k     =<   0.333   0.000   0.000> . <b1,b2,b3> 
          =<   0.314   0.000   0.000>

 orbital energies:
     0.4217990E+00 (  11.478eV) occ=1.000
     0.4067741E+00 (  11.069eV) occ=1.000
     0.4067741E+00 (  11.069eV) occ=1.000
     0.3045557E+00 (   8.287eV) occ=1.000
     0.3045557E+00 (   8.287eV) occ=1.000
     0.2400965E+00 (   6.533eV) occ=1.000
     0.2113261E+00 (   5.751eV) occ=1.000
     0.2113261E+00 (   5.751eV) occ=1.000
     0.2113261E+00 (   5.751eV) occ=1.000
     0.2113261E+00 (   5.751eV) occ=1.000
     0.5299037E-01 (   1.442eV) occ=1.000
     0.5299037E-01 (   1.442eV) occ=1.000
     0.5299037E-01 (   1.442eV) occ=1.000
     0.5299037E-01 (   1.442eV) occ=1.000
    -0.1434556E+00 (  -3.904eV) occ=1.000
    -0.2559207E+00 (  -6.964eV) occ=1.000

 Brillouin zone point:     14
    weight=  0.037037
    k     =<   0.000   0.000   0.000> . <b1,b2,b3> 
          =<   0.000   0.000   0.000>

 orbital energies:
     0.5028020E+00 (  13.682eV) occ=1.000
     0.5028020E+00 (  13.682eV) occ=1.000
     0.5028020E+00 (  13.682eV) occ=1.000
     0.2675932E+00 (   7.282eV) occ=1.000
     0.2675932E+00 (   7.282eV) occ=1.000
     0.2675932E+00 (   7.282eV) occ=1.000
     0.2675932E+00 (   7.282eV) occ=1.000
     0.2675932E+00 (   7.282eV) occ=1.000
     0.2675932E+00 (   7.282eV) occ=1.000
     0.3205698E-01 (   0.872eV) occ=1.000
     0.3205698E-01 (   0.872eV) occ=1.000
     0.3205698E-01 (   0.872eV) occ=1.000
     0.3205698E-01 (   0.872eV) occ=1.000
     0.3205698E-01 (   0.872eV) occ=1.000
     0.3205698E-01 (   0.872eV) occ=1.000
    -0.2942680E+00 (  -8.008eV) occ=1.000

 Total BAND energy   :  -0.4562102901E+02


=== Spin Contamination ===
 
 <Sexact^2> =   0.000000000000000E+000
 <S^2>      =   0.000000000000000E+000
 


========================
= Gradient calculation =
========================


Translation force removed: (    0.00000    0.00000    0.00000)


          =============  Ion Gradients =================
 Ion Forces:
        1 C    (    0.00000    0.00000    0.00000 )
        2 C    (    0.00000    0.00000    0.00000 )
        3 C    (    0.00000    0.00000    0.00000 )
        4 C    (    0.00000    0.00000    0.00000 )
        5 C    (    0.00000    0.00000    0.00000 )
        6 C    (    0.00000    0.00000    0.00000 )
        7 C    (    0.00000    0.00000    0.00000 )
        8 C    (    0.00000    0.00000    0.00000 )
        C.O.M. (    0.00000    0.00000    0.00000 )
          ===============================================
          |F|       =   0.182531E-07
          |F|/nion  =   0.228164E-08
          max|Fatom|=   0.698173E-08 (   0.000eV/Angstrom)


 pseudopotential is not correctly formatted:
 C.cpp2                                            
 
 pseudopotential is not correctly formatted-bad brillioun zone:
 C.cpp2                                            
 
 Generated formatted_stress_filename: ./perm/C.cpp2
 - Spline fitted, nray= 2638 -
 - filtered -


======================
= Stress calculation =
======================


          ============= total gradient ==============
      S =  (    0.00010    0.00000    0.00000 )
           (    0.00000    0.00010    0.00000 )
           (    0.00000    0.00000    0.00010 )
          ===================================================
          |S|      = 0.18082E-03
          pressure = 0.104E-03 au
                   = 0.307E-01 Mbar
                   = 0.307E+01 GPa
                   = 0.303E+05 atm

 
       dE/da     =     0.00010
       dE/db     =     0.00010
       dE/dc     =     0.00010
       dE/dalpha =     0.00000
       dE/dbeta  =     0.00000
       dE/dgamma =     0.00000
 
 
 Writing Crystallographic Information File:./perm/diamond-symmetry.cif
   - cell not shifted (nwpw:cif_shift_cell .false.)

 output psi filename:./perm/diamond-symmetry.movecs


== Timing ==

cputime in seconds
  prologue    :   0.166916E+01
  main loop   :   0.352677E+01
  epilogue    :   0.851730E+00
  total       :   0.604766E+01
  cputime/step:   0.587795E+00       (       6 evalulations,       2 linesearches)


Time spent doing                        total          step
  FFTs                       :   0.850172E-01  0.141695E-01
  dot products               :   0.686771E+00  0.114462E+00
  geodesic                   :   0.232451E+00  0.387418E-01
  ffm_dgemm                  :   0.000000E+00  0.000000E+00
  fmf_dgemm                  :   0.000000E+00  0.000000E+00
  m_diagonalize              :   0.000000E+00  0.000000E+00
    - m_tredq                :   0.000000E+00  0.000000E+00
       - m_tredq_houseq      :   0.000000E+00  0.000000E+00
       - m_tredq_houseq_dgemm:   0.000000E+00  0.000000E+00
       - m_tredq_dgemm1      :   0.000000E+00  0.000000E+00
    - m_getdiags             :   0.000000E+00  0.000000E+00
    - m_tqliq                :   0.000000E+00  0.000000E+00
    - m_eigsrt               :   0.000000E+00  0.000000E+00
  exchange correlation       :   0.103277E+00  0.172128E-01
  local pseudopotentials     :   0.664759E-02  0.110793E-02
  non-local pseudopotentials :   0.496022E+00  0.826704E-01
  hartree potentials         :   0.133967E-02  0.223279E-03
  ion-ion interaction        :   0.684302E-01  0.114050E-01
  structure factors          :   0.687214E-02  0.114536E-02
  phase factors              :   0.000000E+00  0.000000E+00
  masking and packing        :   0.108414E+00  0.180690E-01
  queue fft                  :   0.103758E+01  0.172931E+00
  queue fft (serial)         :   0.705634E+00  0.117606E+00
  queue fft (message passing):   0.301168E+00  0.501946E-01
  HFX potential              :   0.000000E+00  0.000000E+00
  qmmm LJ                    :   0.000000E+00  0.000000E+00
  qmmm residual Q            :   0.000000E+00  0.000000E+00
 
     >>>  JOB COMPLETED     AT Mon Jan 30 13:52:12 2012  <<<

  Step       Energy      Delta E   Gmax     Grms     Xrms     Xmax   Walltime
  ---- ---------------- -------- -------- -------- -------- -------- --------
@    7     -45.62102901 -4.1D-07  0.00010  0.00003  0.00019  0.00060    287.1
                                     ok       ok       ok       ok  


      ----------------------
      Optimization converged
      ----------------------


  Step       Energy      Delta E   Gmax     Grms     Xrms     Xmax   Walltime
  ---- ---------------- -------- -------- -------- -------- -------- --------
@    7     -45.62102901 -4.1D-07  0.00010  0.00003  0.00019  0.00060    287.1
                                     ok       ok       ok       ok  

 
 
                         Geometry "geometry" -> "geometry"
                         ---------------------------------
 
 Output coordinates in angstroms (scale by  1.889725989 to convert to a.u.)
 
  No.       Tag          Charge          X              Y              Z
 ---- ---------------- ---------- -------------- -------------- --------------
    1 C                    6.0000     0.00000000     0.00000000     0.00000000
    2 C                    6.0000     0.00000000     1.76715074     1.76715074
    3 C                    6.0000     1.76715074     1.76715074     0.00000000
    4 C                    6.0000     1.76715074     0.00000000     1.76715074
    5 C                    6.0000     2.65072611     0.88357537     2.65072611
    6 C                    6.0000     0.88357537     0.88357537     0.88357537
    7 C                    6.0000     0.88357537     2.65072611     2.65072611
    8 C                    6.0000     2.65072611     2.65072611     0.88357537
 
      Lattice Parameters 
      ------------------ 
 
      lattice vectors in angstroms (scale by  1.889725989 to convert to a.u.)
 
      a1=<   3.534   0.000   0.000 >
      a2=<   0.000   3.534   0.000 >
      a3=<   0.000   0.000   3.534 >
      a=       3.534 b=      3.534 c=       3.534
      alpha=  90.000 beta=  90.000 gamma=  90.000
      omega=    44.1
 
      reciprocal lattice vectors in a.u.
 
      b1=<   0.941   0.000   0.000 >
      b2=<   0.000   0.941   0.000 >
      b3=<   0.000   0.000   0.941 >
 
      Atomic Mass 
      ----------- 
 
      C                 12.000000
 
 
      Symmetry information
      --------------------
 
 Group name                  Fd-3m
 Group number            227
 Group order             192
 No. of unique centers     1
 Setting number            1
 
      Symmetry unique atoms
 
     1
 
 ==============================================================================
                                internuclear distances
 ------------------------------------------------------------------------------
       center one      |      center two      | atomic units |  angstroms
 ------------------------------------------------------------------------------
    5 C                |   4 C                |     2.89203  |     1.53040
    6 C                |   1 C                |     2.89203  |     1.53040
    6 C                |   2 C                |     2.89203  |     1.53040
    6 C                |   3 C                |     2.89203  |     1.53040
    6 C                |   4 C                |     2.89203  |     1.53040
    7 C                |   2 C                |     2.89203  |     1.53040
    8 C                |   3 C                |     2.89203  |     1.53040
 ------------------------------------------------------------------------------
                         number of included internuclear distances:          7
 ==============================================================================



 ==============================================================================
                                 internuclear angles
 ------------------------------------------------------------------------------
        center 1       |       center 2       |       center 3       |  degrees
 ------------------------------------------------------------------------------
    6 C                |   2 C                |   7 C                |   109.47
    6 C                |   3 C                |   8 C                |   109.47
    5 C                |   4 C                |   6 C                |   109.47
    1 C                |   6 C                |   2 C                |   109.47
    1 C                |   6 C                |   3 C                |   109.47
    1 C                |   6 C                |   4 C                |   109.47
    2 C                |   6 C                |   3 C                |   109.47
    2 C                |   6 C                |   4 C                |   109.47
    3 C                |   6 C                |   4 C                |   109.47
 ------------------------------------------------------------------------------
                            number of included internuclear angles:          9
 ==============================================================================




 Task  times  cpu:      229.7s     wall:      287.3s
 
 
                                NWChem Input Module
                                -------------------
 
 
 Summary of allocated global arrays
-----------------------------------
  No active global arrays



                         GA Statistics for process    0
                         ------------------------------

       create   destroy   get      put      acc     scatter   gather  read&inc
calls:    0        0        0        0        0        0        0        0     
number of processes/call 0.00e+00 0.00e+00 0.00e+00 0.00e+00 0.00e+00
bytes total:             0.00e+00 0.00e+00 0.00e+00 0.00e+00 0.00e+00 0.00e+00
bytes remote:            0.00e+00 0.00e+00 0.00e+00 0.00e+00 0.00e+00 0.00e+00
Max memory consumed for GA by this process: 0 bytes
 
 
 
                                     CITATION
                                     --------
                Please cite the following reference when publishing
                           results obtained with NWChem:
 
                 M. Valiev, E.J. Bylaska, N. Govind, K. Kowalski,
              T.P. Straatsma, H.J.J. van Dam, D. Wang, J. Nieplocha,
                        E. Apra, T.L. Windus, W.A. de Jong
                 "NWChem: a comprehensive and scalable open-source
                  solution for large scale molecular simulations"
                      Comput. Phys. Commun. 181, 1477 (2010)
                           doi:10.1016/j.cpc.2010.04.018
 
                              AUTHORS & CONTRIBUTORS
                              ----------------------
      E. J. Bylaska, W. A. de Jong, N. Govind, K. Kowalski, T. P. Straatsma,
     M. Valiev, H. J. J. van Dam, D. Wang, E. Apra, T. L. Windus, J. Hammond,
    J. Autschbach, F. Aquino, J. Mullin, P. Nichols, S. Hirata, M. T. Hackler,
   Y. Zhao, P.-D. Fan, R. J. Harrison, M. Dupuis, D. M. A. Smith, K. Glaesemann,
    J. Nieplocha, V. Tipparaju, M. Krishnan, A. Vazquez-Mayagoitia, L. Jensen,
      M. Swart, Q. Wu, T. Van Voorhis, A. A. Auer, M. Nooijen, L. D. Crosby,
        E. Brown, G. Cisneros, G. I. Fann, H. Fruchtl, J. Garza, K. Hirao,
        R. Kendall, J. A. Nichols, K. Tsemekhman, K. Wolinski, J. Anchell,
       D. Bernholdt, P. Borowski, T. Clark, D. Clerc, H. Dachsel, M. Deegan,
        K. Dyall, D. Elwood, E. Glendening, M. Gutowski, A. Hess, J. Jaffe,
        B. Johnson, J. Ju, R. Kobayashi, R. Kutteh, Z. Lin, R. Littlefield,
    X. Long, B. Meng, T. Nakajima, S. Niu, L. Pollack, M. Rosing, G. Sandrone,
       M. Stave, H. Taylor, G. Thomas, J. H. van Lenthe, A. Wong, Z. Zhang.

 Total times  cpu:      229.7s     wall:      288.3s
MA_summarize_allocated_blocks: starting scan ...
MA_summarize_allocated_blocks: scan completed: 0 heap blocks, 0 stack blocks
MA usage statistics:

	allocation statistics:
					      heap	     stack
					      ----	     -----
	current number of blocks	         0	         0
	maximum number of blocks	       322	        16
	current total bytes		         0	         0
	maximum total bytes		  83458360	   9158416
	maximum total K-bytes		     83459	      9159
	maximum total M-bytes		        84	        10
