                    3
 energy=  -75.970000166349976     
O           0.000000   -0.022939    0.000000
H           0.000000    0.550469    0.754065
H           0.000000    0.550469   -0.754065
                    3
 energy=  -75.973959110715782     
O           0.000000   -0.113757    0.000000
H          -0.000000    0.503225    0.782317
H          -0.000000    0.503225   -0.782317
                    3
 energy=  -75.973964510841483     
O           0.000000   -0.181859    0.000000
H          -0.000000    0.433493    0.783885
H          -0.000000    0.433493   -0.783885
                    3
 energy=  -75.973965555677054     
O           0.000000   -0.250166    0.000000
H          -0.000000    0.363417    0.785372
H          -0.000000    0.363417   -0.785372
                    3
 energy=  -75.973961070707475     
O           0.000000   -0.318810    0.000000
H          -0.000000    0.292600    0.787206
H          -0.000000    0.292600   -0.787206
                    3
 energy=  -75.973142180006590     
O           0.000000   -0.362102    0.000000
H          -0.000000    0.215685    0.813982
H          -0.000000    0.215685   -0.813982
                    3
 energy=  -75.965943449321571     
O           0.000000   -0.333624    0.000000
H          -0.000000    0.147418    0.866150
H          -0.000000    0.147418   -0.866150
                    3
 energy=  -75.950415212001559     
O           0.000000   -0.237123    0.000000
H          -0.000000    0.113328    0.905233
H          -0.000000    0.113328   -0.905233
                    3
 energy=  -75.933002074214102     
O           0.000000   -0.142870    0.000000
H          -0.000000    0.069178    0.929208
H          -0.000000    0.069178   -0.929208
                    3
 energy=  -75.921923496461957     
O           0.000000   -0.048083    0.000000
H          -0.000000    0.023409    0.940917
H          -0.000000    0.023409   -0.940917
                    3
 energy=  -75.921840553498853     
O           0.000000    0.046720   -0.000000
H          -0.000000   -0.022779    0.940988
H          -0.000000   -0.022779   -0.940988
                    3
 energy=  -75.932732076525284     
O           0.000000    0.141162   -0.000000
H          -0.000000   -0.068414    0.929458
H          -0.000000   -0.068414   -0.929458
                    3
 energy=  -75.949962825727837     
O           0.000000    0.234725   -0.000000
H          -0.000000   -0.112287    0.905998
H          -0.000000   -0.112287   -0.905998
                    3
 energy=  -75.965441861099009     
O          -0.000000    0.330865   -0.000000
H           0.000000   -0.145282    0.868249
H           0.000000   -0.145282   -0.868249
                    3
 energy=  -75.972833511126353     
O           0.000000    0.356892    0.000000
H          -0.000000   -0.213035    0.818236
H          -0.000000   -0.213035   -0.818236
                    3
 energy=  -75.973958749999966     
O           0.000000    0.320400    0.000000
H          -0.000000   -0.290326    0.787661
H          -0.000000   -0.290326   -0.787661
                    3
 energy=  -75.973965291345195     
O           0.000000    0.251746    0.000000
H          -0.000000   -0.361503    0.785662
H          -0.000000   -0.361503   -0.785662
                    3
 energy=  -75.973965029416817     
O           0.000000    0.183002    0.000000
H          -0.000000   -0.432021    0.784161
H          -0.000000   -0.432021   -0.784161
                    3
 energy=  -75.973960074454396     
O           0.000000    0.114490    0.000000
H          -0.000000   -0.502447    0.782584
H          -0.000000   -0.502447   -0.782584
                    3
 energy=  -75.970000163960066     
O           0.000000    0.022939    0.000000
H           0.000000   -0.550469    0.754065
H           0.000000   -0.550469   -0.754065
