                    3
 energy=  -75.970000166349948     
O           0.000000   -0.022939    0.000000
H           0.000000    0.550469    0.754065
H           0.000000    0.550469   -0.754065
                    3
 energy=  -75.973959974701629     
O           0.000000   -0.190791    0.000000
H          -0.000000    0.426112    0.782540
H          -0.000000    0.426112   -0.782540
                    3
 energy=  -75.973934633484220     
O           0.000000   -0.330056    0.000000
H          -0.000000    0.276606    0.790364
H          -0.000000    0.276606   -0.790364
                    3
 energy=  -75.959428442973547     
O           0.000000   -0.290629    0.000000
H          -0.000000    0.128078    0.882324
H          -0.000000    0.128078   -0.882324
                    3
 energy=  -75.926141533087886     
O           0.000000   -0.096560   -0.000000
H          -0.000000    0.043634    0.934633
H          -0.000000    0.043634   -0.934633
                    3
 energy=  -75.926084814408910     
O           0.000000    0.096047   -0.000000
H          -0.000000   -0.043433    0.934681
H          -0.000000   -0.043433   -0.934681
                    3
 energy=  -75.959181749050259     
O          -0.000000    0.289254    0.000000
H           0.000000   -0.127437    0.882970
H           0.000000   -0.127437   -0.882970
                    3
 energy=  -75.973926796378535     
O           0.000000    0.331962    0.000000
H          -0.000000   -0.273894    0.791060
H          -0.000000   -0.273894   -0.791060
                    3
 energy=  -75.973963002689217     
O           0.000000    0.191809    0.000000
H          -0.000000   -0.423976    0.783251
H          -0.000000   -0.423976   -0.783251
                    3
 energy=  -75.970000163962553     
O           0.000000    0.022939    0.000000
H           0.000000   -0.550469    0.754065
H           0.000000   -0.550469   -0.754065
