 argument  1 = Ni-band.nw
 argument  2 = -np
 argument  3 = 6
 


============================== echo of input deck ==============================
title "Ni FCC metal, monkhorst-pack=3x3x3, 5x5x5, and 7x7x7, fermi smearing, xc=pbe96"
echo

start Ni-band

memory heap 900 mb stack 900 mb global 100 mb

permanent_dir ./perm
scratch_dir   ./scratch

geometry units angstroms center noautosym noautoz print
 system crystal
    lat_a 3.5451d0
    lat_b 3.5451d0
    lat_c 3.5454d0
    alpha 90.0d0
    beta  90.0d0
    gamma 90.0d0
  end

Ni 0.000000   0.000000   0.000000
Ni 0.000000   0.500000   0.500000
Ni 0.500000   0.000000   0.500000
Ni 0.500000   0.500000   0.000000
end
set nwpw:cif_filename Ni-band
set nwpw:zero_forces .true.
set includestress    .true.

#turn on pseudopotential filtering
set nwpw:kbpp_ray .true.
set nwpw:kbpp_filter .true.

nwpw
   #fractional occupation
   smear fermi

   #scf option used with smear
   scf anderson outer_iterations 0 kerker 2.0


   ewald_ncut 8
   ewald_rcut 3.0
   xc pbe96
   monkhorst-pack 3 3 3
   np_dimensions -1 -1 6
end

#generate initial wavefunctions w/ low cutoff energy
nwpw
   loop 10 10
   cutoff 10.0
end
task band energy

#increase cutoff energy and number of iterations
nwpw
   cutoff 50.0
   loop 10 100
end

#3x3x3 k-point mesh
nwpw
  monkhorst-pack 3 3 3
end
set nwpw:cif_filename nickel333.opt
driver; clear; maxiter 40; end; task band optimize ignore

#5x5x5 k-point mesh
nwpw
  monkhorst-pack 5 5 5
end
set nwpw:cif_filename nickel555.opt
driver; clear; maxiter 40; end; task band optimize ignore

#7x7x7 k-point mesh
nwpw
  monkhorst-pack 7 7 7
end
set nwpw:cif_filename nickel777.opt
driver; clear; maxiter 40; end; task band optimize ignore

================================================================================


                                         
                                         
 
 
             Northwest Computational Chemistry Package (NWChem) 5.1.1
             --------------------------------------------------------
 
 
                    Environmental Molecular Sciences Laboratory
                       Pacific Northwest National Laboratory
                                Richland, WA 99352
 
                                         
                                         
 
 
                  COPYRIGHT (C) 1994, 1995, 1996, 1997, 1998, 1999,
                2000, 2001, 2002, 2003, 2004, 2005, 2006, 2007, 2008,
                                     2009, 2010
                        Pacific Northwest National Laboratory,
                             Battelle Memorial Institute.
 
                            >>> All Rights Reserved <<<
 
 
                                    DISCLAIMER
                                    ----------

            This material was prepared as an account of work sponsored
            by an agency of the United States Government.  Neither the
            United States Government nor the United States Department
            of Energy, nor Battelle, nor any of their employees, MAKES
            ANY WARRANTY, EXPRESS OR IMPLIED, OR ASSUMES ANY LEGAL
            LIABILITY OR RESPONSIBILITY FOR THE ACCURACY, COMPLETENESS,
            OR USEFULNESS OF ANY INFORMATION, APPARATUS, PRODUCT,
            SOFTWARE, OR PROCESS DISCLOSED, OR REPRESENTS THAT ITS USE
            WOULD NOT INFRINGE PRIVATELY OWNED RIGHTS.


                                    LIMITED USE
                                    -----------

            This software (including any documentation) is being made
            available to you for your internal use only, solely for use
            in performance of work directly for the U.S. Federal
            Government or work under contracts with the U.S. Department
            of Energy or other U.S. Federal Government agencies.  This
            software is a version which has not yet been evaluated and
            cleared for commercialization.  Adherence to this notice
            may be necessary for the author, Battelle Memorial
            Institute, to successfully assert copyright in and
            commercialize this software. This software is not intended
            for duplication or distribution to third parties without
            the permission of the Manager of Software Products at
            Pacific Northwest National Laboratory, Richland,
            Washington, 99352.


                                  ACKNOWLEDGMENT
                                  --------------

            This software and its documentation were produced with
            Government support under Contract Number DE-AC05-76RL01830
            awarded by the United States Department of Energy.  The
            Government retains a paid-up non-exclusive, irrevocable
            worldwide license to reproduce, prepare derivative works,
            perform publicly and display publicly by or for the
            Government, including the right to distribute to other
            Government contractors.


           Job information
           ---------------

    hostname      = seattle-1
    program       = nwchem
    date          = Sun Sep 12 18:50:59 2010

    compiled      = Fri_Aug_20_12:08:24_2010
    source        = /home/bylaska/nwchem-releases/nwchem
    nwchem branch = Development
    input         = Ni-band.nw
    prefix        = Ni-band.
    data base     = ./perm/Ni-band.db
    status        = startup
    nproc         =        6
    time left     =     -1s



           Memory information
           ------------------

    heap      =  117964801 doubles =    900.0 Mbytes
    stack     =  117964801 doubles =    900.0 Mbytes
    global    =   13107200 doubles =    100.0 Mbytes (distinct from heap & stack)
    total     =  249036802 doubles =   1900.0 Mbytes
    verify    = yes
    hardfail  = no 


           Directory information
           ---------------------
 
  0 permanent = ./perm
  0 scratch   = ./scratch
 
 
 
 
                                NWChem Input Module
                                -------------------
 
 
  Ni FCC metal, monkhorst-pack=3x3x3, 5x5x5, and 7x7x7, fermi smearing, xc=pbe96
  ------------------------------------------------------------------------------
 
  !!!!!!!!!  geom_3d NEEDS TESTING !!!!!!!!!! 
 
 
                             Geometry "geometry" -> ""
                             -------------------------
 
 Output coordinates in angstroms (scale by  1.889725989 to convert to a.u.)
 
  No.       Tag          Charge          X              Y              Z
 ---- ---------------- ---------- -------------- -------------- --------------
    1 Ni                  28.0000     0.00000000     0.00000000     0.00000000
    2 Ni                  28.0000     0.00000000     1.77255000     1.77270000
    3 Ni                  28.0000     1.77255000     0.00000000     1.77270000
    4 Ni                  28.0000     1.77255000     1.77255000     0.00000000
 
      Lattice Parameters 
      ------------------ 
 
      lattice vectors in angstroms (scale by  1.889725989 to convert to a.u.)
 
      a1=<   3.545   0.000   0.000 >
      a2=<   0.000   3.545   0.000 >
      a3=<   0.000   0.000   3.545 >
      a=       3.545 b=      3.545 c=       3.545
      alpha=  90.000 beta=  90.000 gamma=  90.000
      omega=    44.6
 
      reciprocal lattice vectors in a.u.
 
      b1=<   0.938   0.000   0.000 >
      b2=<   0.000   0.938   0.000 >
      b3=<   0.000   0.000   0.938 >
 
      Atomic Mass 
      ----------- 
 
      Ni                57.935300
 
 
 ==============================================================================
                                internuclear distances
 ------------------------------------------------------------------------------
       center one      |      center two      | atomic units |  angstroms
 ------------------------------------------------------------------------------
    2 Ni               |   1 Ni               |     4.73730  |     2.50687
    3 Ni               |   1 Ni               |     4.73730  |     2.50687
    3 Ni               |   2 Ni               |     4.73710  |     2.50676
    4 Ni               |   1 Ni               |     4.73710  |     2.50676
    4 Ni               |   2 Ni               |     4.73730  |     2.50687
    4 Ni               |   3 Ni               |     4.73730  |     2.50687
 ------------------------------------------------------------------------------
                         number of included internuclear distances:          6
 ==============================================================================



 ==============================================================================
                                 internuclear angles
 ------------------------------------------------------------------------------
        center 1       |       center 2       |       center 3       |  degrees
 ------------------------------------------------------------------------------
    2 Ni               |   1 Ni               |   3 Ni               |    60.00
    1 Ni               |   4 Ni               |   2 Ni               |    60.00
    1 Ni               |   4 Ni               |   3 Ni               |    60.00
    2 Ni               |   1 Ni               |   3 Ni               |    60.00
    2 Ni               |   4 Ni               |   1 Ni               |    60.00
    2 Ni               |   4 Ni               |   3 Ni               |    60.00
    3 Ni               |   1 Ni               |   2 Ni               |    60.00
    3 Ni               |   4 Ni               |   1 Ni               |    60.00
    3 Ni               |   4 Ni               |   2 Ni               |    60.00
    1 Ni               |   4 Ni               |   2 Ni               |    60.00
    1 Ni               |   4 Ni               |   3 Ni               |    60.00
    2 Ni               |   4 Ni               |   3 Ni               |    60.00
 ------------------------------------------------------------------------------
                            number of included internuclear angles:         12
 ==============================================================================



          **********************************************************
          *                                                        *
          *                   NWPW BAND Calculation                *
          *                                                        *
          *  [(bundled Grassman/Stiefel manifold implementation)]  *
          *                                                        *
          *         [ NorthWest Chemistry implementation ]         *
          *                                                        *
          *                version #1.10   01/31/03                *
          *                                                        *
          *  A pseudopotential plane-wave band structure program   *
          *  with Brillouin zone sampling for optimizing crystals, *
          *  slabs, and polymers.  Developed by Eric J. Bylaska    *
          *  , Edoardo Apra, and Patrick Nichols.                  *
          *                                                        *
          **********************************************************
     >>>  JOB STARTED       AT Sun Sep 12 18:50:59 2010  <<<
          ================ input data ========================
  library name resolved from: compiled reference
  NWCHEM_NWPW_LIBRARY set to: <
 /home/bylaska/nwchem-releases/nwchem/src/nwpw/libraryps/>
 Generating 1d pseudopotential for Ni  
 
 Generated formatted_filename: ./perm/Ni.cpp
 - Spline fitted, nray= 1426 -
 - filtered -
 random planewave guess, initial psi:
 Ni-band.movecs                                    
 -   spin, nalpha, nbeta:                     1                    24
                     0

 input psi filename:./perm/Ni-band.movecs
Warning - Orthogonalization performed, spin,zone: 1   1
        - error(before)=  0.293809E+01 (  0.210619E+02)
        - error(after)=   0.106581E-13 (  0.240000E+02)
Warning - Orthogonalization performed, spin,zone: 1   2
        - error(before)=  0.296861E+01 (  0.210314E+02)
        - error(after)=   0.355271E-14 (  0.240000E+02)
Warning - Orthogonalization performed, spin,zone: 1   3
        - error(before)=  0.292806E+01 (  0.210719E+02)
        - error(after)=   0.355271E-14 (  0.240000E+02)
Warning - Orthogonalization performed, spin,zone: 1   4
        - error(before)=  0.295137E+01 (  0.210486E+02)
        - error(after)=   0.710543E-14 (  0.240000E+02)
Warning - Orthogonalization performed, spin,zone: 1   5
        - error(before)=  0.295004E+01 (  0.210500E+02)
        - error(after)=   0.000000E+00 (  0.240000E+02)
Warning - Orthogonalization performed, spin,zone: 1   6
        - error(before)=  0.294244E+01 (  0.210576E+02)
        - error(after)=   0.106581E-13 (  0.240000E+02)
Warning - Orthogonalization performed, spin,zone: 1   7
        - error(before)=  0.291466E+01 (  0.210853E+02)
        - error(after)=   0.355271E-14 (  0.240000E+02)
Warning - Orthogonalization performed, spin,zone: 1   8
        - error(before)=  0.294640E+01 (  0.210536E+02)
        - error(after)=   0.355271E-14 (  0.240000E+02)
Warning - Orthogonalization performed, spin,zone: 1   9
        - error(before)=  0.293803E+01 (  0.210620E+02)
        - error(after)=   0.355271E-14 (  0.240000E+02)
Warning - Orthogonalization performed, spin,zone: 1  10
        - error(before)=  0.294997E+01 (  0.210500E+02)
        - error(after)=   0.106581E-13 (  0.240000E+02)
Warning - Orthogonalization performed, spin,zone: 1  11
        - error(before)=  0.296620E+01 (  0.210338E+02)
        - error(after)=   0.000000E+00 (  0.240000E+02)
Warning - Orthogonalization performed, spin,zone: 1  12
        - error(before)=  0.296403E+01 (  0.210360E+02)
        - error(after)=   0.355271E-14 (  0.240000E+02)
Warning - Orthogonalization performed, spin,zone: 1  13
        - error(before)=  0.293331E+01 (  0.210667E+02)
        - error(after)=   0.000000E+00 (  0.240000E+02)
Warning - Orthogonalization performed, spin,zone: 1  14
        - error(before)=  0.293680E+01 (  0.210632E+02)
        - error(after)=   0.355271E-14 (  0.240000E+02)
 
 Fixed ion positions:    1    2    3    4
 

 number of processors used:               6
 processor grid           :   1 x   1 x   6
 parallel mapping         :         hilbert

 options:
      boundary conditions  = periodic    (version3)
      electron spin        = restricted
      exchange-correlation = PBE96 (White and Bird) parameterization

 elements involved in the cluster:
      1: Ni    core charge:10.0  lmax=2
             comment    : Troullier-Martins pseudopotential
             pseudpotential type            :   0
             highest angular component      :   2
             local potential used           :   0
             number of non-local projections:   8
             semicore corrections included  :  0.740 (radius)  8.508 (charge)
             cutoff =   2.945   2.945   2.294

 total charge:   0.000

 atomic composition:
     Ni  :  4

 number of electrons: spin up=   20.00  spin down=   20.00 (fourier space)
 number of orbitals:  spin up=      24  spin down=      24 (fourier space)

 supercell:
      lattice:    a1=<   6.699   0.000   0.000 >
                  a2=<   0.000   6.699   0.000 >
                  a3=<   0.000   0.000   6.700 >
      reciprocal: b1=<   0.938   0.000   0.000 >
                  b2=<   0.000   0.938   0.000 >
                  b3=<   0.000   0.000   0.938 >

      lattice:    a=   6.699    b=   6.699     c=   6.700
              alpha=  90.000 beta=  90.000 gamma=  90.000
      volume :      300.7
      ewald summation: cut radius=    3.00  and  8
                        madelung= 1.76011888

 brillouin zone:
      number of zone points:    14
      weight=   0.074  ks=<   0.333   0.333   0.333 >, k=<   0.313   0.313   0.313>
      weight=   0.074  ks=<   0.000   0.333   0.333 >, k=<   0.000   0.313   0.313>
      weight=   0.074  ks=<  -0.333   0.333   0.333 >, k=<  -0.313   0.313   0.313>
      weight=   0.074  ks=<   0.333   0.000   0.333 >, k=<   0.313   0.000   0.313>
      weight=   0.074  ks=<   0.000   0.000   0.333 >, k=<   0.000   0.000   0.313>
      weight=   0.074  ks=<   0.333   0.000  -0.333 >, k=<   0.313   0.000  -0.313>
      weight=   0.074  ks=<   0.333  -0.333   0.333 >, k=<   0.313  -0.313   0.313>
      weight=   0.074  ks=<   0.000   0.333  -0.333 >, k=<   0.000   0.313  -0.313>
      weight=   0.074  ks=<   0.333   0.333  -0.333 >, k=<   0.313   0.313  -0.313>
      weight=   0.074  ks=<   0.333   0.333   0.000 >, k=<   0.313   0.313   0.000>
      weight=   0.074  ks=<   0.000   0.333   0.000 >, k=<   0.000   0.313   0.000>
      weight=   0.074  ks=<   0.333  -0.333   0.000 >, k=<   0.313  -0.313   0.000>
      weight=   0.074  ks=<   0.333   0.000   0.000 >, k=<   0.313   0.000   0.000>
      weight=   0.037  ks=<   0.000   0.000   0.000 >, k=<   0.000   0.000   0.000>

 computational grids:
      density     cutoff= 20.000  fft=  14x  14x  14(     1309 waves     1309 per task)
      wavefnc   1 cutoff= 10.000  fft=  14x  14x  14(      462 waves      462 per task)
      wavefnc   2 cutoff= 10.000  fft=  14x  14x  14(      447 waves      447 per task)
      wavefnc   3 cutoff= 10.000  fft=  14x  14x  14(      462 waves      462 per task)
      wavefnc   4 cutoff= 10.000  fft=  14x  14x  14(      447 waves      447 per task)
      wavefnc   5 cutoff= 10.000  fft=  14x  14x  14(      446 waves      446 per task)
      wavefnc   6 cutoff= 10.000  fft=  14x  14x  14(      447 waves      447 per task)
      wavefnc   7 cutoff= 10.000  fft=  14x  14x  14(      462 waves      462 per task)
      wavefnc   8 cutoff= 10.000  fft=  14x  14x  14(      447 waves      447 per task)
      wavefnc   9 cutoff= 10.000  fft=  14x  14x  14(      462 waves      462 per task)
      wavefnc  10 cutoff= 10.000  fft=  14x  14x  14(      447 waves      447 per task)
      wavefnc  11 cutoff= 10.000  fft=  14x  14x  14(      446 waves      446 per task)
      wavefnc  12 cutoff= 10.000  fft=  14x  14x  14(      447 waves      447 per task)
      wavefnc  13 cutoff= 10.000  fft=  14x  14x  14(      446 waves      446 per task)
      wavefnc  14 cutoff= 10.000  fft=  14x  14x  14(      461 waves      461 per task)

 technical parameters:
      time step=      5.80     ficticious mass=  400000.0
      tolerance=.100E-06 (energy)   0.100E-06 (density)
      maximum iterations =     100 (   10 inner   10 outer )

 Kohn-Sham scf parameters:
      Kohn-Sham algorithm  = conjugate gradient
      Kohn-Sham iterations =   5 (  0 outer)
      scf algorithm        = Anderson density mixing
      scf mixing type      = density
      scf mixing parameter = 0.2500
      Kerker damping       = 2.0000

 fractional smearing parameters:
      smearing algorithm   = Fermi-Dirac
      smearing parameter   = 0.100E-02 (  315.8 K)



= energy calculation =


          =========== scf minimization (density)  ============
     >>>  ITERATION STARTED AT Sun Sep 12 18:51:01 2010  <<<
    iter.           Energy         DeltaE       DeltaRho        DeltaV  
    ---------------------------------------------------------------------
     -  10 steepest descent iterations performed
       1   -0.1319263913E+03   -0.57610E+02    0.14689E+00    0.23631E+01
       2   -0.1387209152E+03   -0.67945E+01    0.11208E+00    0.18581E+01
       3   -0.1405697927E+03   -0.18489E+01    0.76203E-01    0.13205E+01
       4   -0.1422295445E+03   -0.16598E+01    0.45220E-01    0.82590E+00
       5   -0.1433490766E+03   -0.11195E+01    0.25762E-01    0.50072E+00
       6   -0.1440089900E+03   -0.65991E+00    0.14844E-01    0.30870E+00
       7   -0.1444177615E+03   -0.40877E+00    0.86575E-02    0.19257E+00
       8   -0.1446613803E+03   -0.24362E+00    0.52324E-02    0.12383E+00
       9   -0.1447924989E+03   -0.13112E+00    0.34119E-02    0.84982E-01
      10   -0.1448865740E+03   -0.94075E-01    0.22301E-02    0.58661E-01
      11   -0.1449566048E+03   -0.70031E-01    0.14464E-02    0.40622E-01
      12   -0.1450094398E+03   -0.52835E-01    0.93548E-03    0.28298E-01
      13   -0.1450348130E+03   -0.25373E-01    0.64939E-03    0.21577E-01
      14   -0.1450644615E+03   -0.29649E-01    0.42025E-03    0.15660E-01
      15   -0.1450698876E+03   -0.54261E-02    0.31603E-03    0.13569E-01
      16   -0.1450847146E+03   -0.14827E-01    0.21411E-03    0.10772E-01
      17   -0.1450868933E+03   -0.21787E-02    0.16010E-03    0.98702E-02
      18   -0.1450914683E+03   -0.45750E-02    0.11659E-03    0.88215E-02
      19   -0.1450925044E+03   -0.10362E-02    0.86504E-04    0.83725E-02
      20   -0.1450945650E+03   -0.20606E-02    0.63815E-04    0.78624E-02
      21   -0.1450950827E+03   -0.51770E-03    0.47111E-04    0.76287E-02
      22   -0.1450959579E+03   -0.87515E-03    0.35345E-04    0.73792E-02
      23   -0.1450962368E+03   -0.27897E-03    0.25934E-04    0.72511E-02
      24   -0.1450966698E+03   -0.43295E-03    0.19323E-04    0.71153E-02
      25   -0.1450968176E+03   -0.14786E-03    0.14220E-04    0.70453E-02
      26   -0.1450970298E+03   -0.21219E-03    0.10877E-04    0.69733E-02
      27   -0.1450971112E+03   -0.81338E-04    0.79899E-05    0.69335E-02
      28   -0.1450972249E+03   -0.11370E-03    0.60618E-05    0.68908E-02
      29   -0.1450972687E+03   -0.43816E-04    0.44661E-05    0.68684E-02
      30   -0.1450973232E+03   -0.54541E-04    0.34281E-05    0.68439E-02
      31   -0.1450973470E+03   -0.23792E-04    0.25316E-05    0.68309E-02
      32   -0.1450973749E+03   -0.27874E-04    0.19263E-05    0.68166E-02
      33   -0.1450973883E+03   -0.13444E-04    0.14288E-05    0.68091E-02
      34   -0.1450974040E+03   -0.15665E-04    0.10900E-05    0.68002E-02
      35   -0.1450974114E+03   -0.74368E-05    0.81300E-06    0.67958E-02
      36   -0.1450974184E+03   -0.69088E-05    0.62057E-06    0.67917E-02
      37   -0.1450974228E+03   -0.44014E-05    0.46601E-06    0.67889E-02
      38   -0.1450974260E+03   -0.32864E-05    0.35317E-06    0.67864E-02
      39   -0.1450974286E+03   -0.26012E-05    0.26768E-06    0.67845E-02
      40   -0.1450974306E+03   -0.19909E-05    0.20402E-06    0.67828E-02
      41   -0.1450974322E+03   -0.15688E-05    0.15562E-06    0.67815E-02
      42   -0.1450974334E+03   -0.12204E-05    0.11921E-06    0.67803E-02
      43   -0.1450974344E+03   -0.96092E-06    0.91335E-07    0.67794E-02
      44   -0.1450974351E+03   -0.75971E-06    0.70220E-07    0.67786E-02
      45   -0.1450974357E+03   -0.60092E-06    0.53971E-07    0.67779E-02
      46   -0.1450974362E+03   -0.48467E-06    0.41604E-07    0.67773E-02
      47   -0.1450974366E+03   -0.38704E-06    0.32050E-07    0.67769E-02
      48   -0.1450974369E+03   -0.32036E-06    0.24754E-07    0.67764E-02
      49   -0.1450974372E+03   -0.25925E-06    0.19101E-07    0.67761E-02
      50   -0.1450974374E+03   -0.22141E-06    0.14773E-07    0.67758E-02
      51   -0.1450974376E+03   -0.18200E-06    0.11412E-07    0.67756E-02
      52   -0.1450974378E+03   -0.16081E-06    0.88360E-08    0.67754E-02
      53   -0.1450974379E+03   -0.13428E-06    0.68312E-08    0.67752E-02
      54   -0.1450974380E+03   -0.12256E-06    0.52931E-08    0.67750E-02
      55   -0.1450974381E+03   -0.10380E-06    0.40945E-08    0.67749E-02
      56   -0.1450974382E+03   -0.97416E-07    0.31748E-08    0.67748E-02
  *** tolerance ok.    iteration terminated.
     >>>  ITERATION ENDED   AT Sun Sep 12 18:51:26 2010  <<<


          =============  summary of results  =================
 
 number of electrons: spin up=   20.00000  down=   20.00000 (real space)

 total     energy    :  -0.1450974425E+03 (   -0.36274E+02/ion)
 total orbital energy:   0.2717341059E+02 (    0.11322E+01/electron)
 hartree   energy    :   0.7875825563E+01 (    0.32816E+00/electron)
 exc-corr  energy    :  -0.5730526282E+02 (   -0.23877E+01/electron)
 ion-ion   energy    :  -0.1368726560E+03 (   -0.34218E+02/ion)
 smearing  energy    :  -0.4302463062E-05 (   -0.17927E-06/electron)

 K.S. kinetic energy :   0.8116900265E+02 (    0.33820E+01/electron)
 K.S. V_l  energy    :   0.4413450871E+01 (    0.18389E+00/electron)
 K.S. V_nl energy    :  -0.5919649308E+02 (   -0.24665E+01/electron)
 K.S. V_Hart energy  :   0.1575165113E+02 (    0.65632E+00/electron)
 K.S. V_xc energy    :  -0.2977496960E+02 (   -0.12406E+01/electron)
 K.S. V_so energy    :   0.0000000000E+00 (    0.00000E+00/electron)
 Virial Coefficient  :  -0.8476925728E+00

 Fermi energy =     0.9370882E+00 (  25.500eV)

 Brillouin zone point:      1
    weight=  0.074074
    k     =<   0.333   0.333   0.333> . <b1,b2,b3> 
          =<   0.313   0.313   0.313>

 orbital energies:
     0.9509660E+00 (  25.877eV) occ=0.000
     0.9504935E+00 (  25.864eV) occ=0.000
     0.9485112E+00 (  25.811eV) occ=0.000
     0.8689261E+00 (  23.645eV) occ=1.000
     0.8688964E+00 (  23.644eV) occ=1.000
     0.8394337E+00 (  22.842eV) occ=1.000
     0.8394304E+00 (  22.842eV) occ=1.000
     0.8394126E+00 (  22.842eV) occ=1.000
     0.7818066E+00 (  21.274eV) occ=1.000
     0.7818018E+00 (  21.274eV) occ=1.000
     0.7817781E+00 (  21.273eV) occ=1.000
     0.7369525E+00 (  20.054eV) occ=1.000
     0.7369442E+00 (  20.053eV) occ=1.000
     0.6683113E+00 (  18.186eV) occ=1.000
     0.6682986E+00 (  18.185eV) occ=1.000
     0.6682931E+00 (  18.185eV) occ=1.000
     0.6614645E+00 (  18.000eV) occ=1.000
     0.5849891E+00 (  15.918eV) occ=1.000
     0.5849788E+00 (  15.918eV) occ=1.000
     0.5849716E+00 (  15.918eV) occ=1.000
     0.4393898E+00 (  11.956eV) occ=1.000
     0.4393884E+00 (  11.956eV) occ=1.000
     0.4393705E+00 (  11.956eV) occ=1.000
     0.3178231E+00 (   8.648eV) occ=1.000

 Brillouin zone point:      2
    weight=  0.074074
    k     =<   0.000   0.333   0.333> . <b1,b2,b3> 
          =<   0.000   0.313   0.313>

 orbital energies:
     0.1011760E+02 ( 275.316eV) occ=0.000
     0.9637837E+00 (  26.226eV) occ=0.000
     0.9637299E+00 (  26.225eV) occ=0.000
     0.9293929E+00 (  25.290eV) occ=0.999
     0.9020342E+00 (  24.546eV) occ=1.000
     0.9020159E+00 (  24.545eV) occ=1.000
     0.8746127E+00 (  23.800eV) occ=1.000
     0.8681333E+00 (  23.623eV) occ=1.000
     0.8457851E+00 (  23.015eV) occ=1.000
     0.8457691E+00 (  23.015eV) occ=1.000
     0.7816496E+00 (  21.270eV) occ=1.000
     0.7686225E+00 (  20.915eV) occ=1.000
     0.7151603E+00 (  19.461eV) occ=1.000
     0.6746572E+00 (  18.359eV) occ=1.000
     0.6746214E+00 (  18.358eV) occ=1.000
     0.6729737E+00 (  18.313eV) occ=1.000
     0.6607740E+00 (  17.981eV) occ=1.000
     0.6607398E+00 (  17.980eV) occ=1.000
     0.6575454E+00 (  17.893eV) occ=1.000
     0.6177057E+00 (  16.809eV) occ=1.000
     0.5064281E+00 (  13.781eV) occ=1.000
     0.4106586E+00 (  11.175eV) occ=1.000
     0.4106377E+00 (  11.174eV) occ=1.000
     0.2732765E+00 (   7.436eV) occ=1.000

 Brillouin zone point:      3
    weight=  0.074074
    k     =<  -0.333   0.333   0.333> . <b1,b2,b3> 
          =<  -0.313   0.313   0.313>

 orbital energies:
     0.9508519E+00 (  25.874eV) occ=0.000
     0.9504886E+00 (  25.864eV) occ=0.000
     0.9484569E+00 (  25.809eV) occ=0.000
     0.8689267E+00 (  23.645eV) occ=1.000
     0.8688970E+00 (  23.644eV) occ=1.000
     0.8394337E+00 (  22.842eV) occ=1.000
     0.8394301E+00 (  22.842eV) occ=1.000
     0.8394126E+00 (  22.842eV) occ=1.000
     0.7818084E+00 (  21.274eV) occ=1.000
     0.7818004E+00 (  21.274eV) occ=1.000
     0.7817790E+00 (  21.273eV) occ=1.000
     0.7369520E+00 (  20.054eV) occ=1.000
     0.7369434E+00 (  20.053eV) occ=1.000
     0.6683115E+00 (  18.186eV) occ=1.000
     0.6682986E+00 (  18.185eV) occ=1.000
     0.6682926E+00 (  18.185eV) occ=1.000
     0.6614647E+00 (  18.000eV) occ=1.000
     0.5849902E+00 (  15.919eV) occ=1.000
     0.5849782E+00 (  15.918eV) occ=1.000
     0.5849714E+00 (  15.918eV) occ=1.000
     0.4393899E+00 (  11.957eV) occ=1.000
     0.4393875E+00 (  11.956eV) occ=1.000
     0.4393715E+00 (  11.956eV) occ=1.000
     0.3178229E+00 (   8.648eV) occ=1.000

 Brillouin zone point:      4
    weight=  0.074074
    k     =<   0.333   0.000   0.333> . <b1,b2,b3> 
          =<   0.313   0.000   0.313>

 orbital energies:
     0.9958201E+00 (  27.098eV) occ=0.000
     0.9637814E+00 (  26.226eV) occ=0.000
     0.9637280E+00 (  26.225eV) occ=0.000
     0.9293954E+00 (  25.290eV) occ=0.999
     0.9020379E+00 (  24.546eV) occ=1.000
     0.9020176E+00 (  24.545eV) occ=1.000
     0.8746109E+00 (  23.800eV) occ=1.000
     0.8681308E+00 (  23.623eV) occ=1.000
     0.8457845E+00 (  23.015eV) occ=1.000
     0.8457717E+00 (  23.015eV) occ=1.000
     0.7816502E+00 (  21.270eV) occ=1.000
     0.7686241E+00 (  20.915eV) occ=1.000
     0.7151618E+00 (  19.461eV) occ=1.000
     0.6746549E+00 (  18.358eV) occ=1.000
     0.6746210E+00 (  18.358eV) occ=1.000
     0.6729719E+00 (  18.313eV) occ=1.000
     0.6607749E+00 (  17.981eV) occ=1.000
     0.6607415E+00 (  17.980eV) occ=1.000
     0.6575442E+00 (  17.893eV) occ=1.000
     0.6177058E+00 (  16.809eV) occ=1.000
     0.5064296E+00 (  13.781eV) occ=1.000
     0.4106582E+00 (  11.175eV) occ=1.000
     0.4106377E+00 (  11.174eV) occ=1.000
     0.2732765E+00 (   7.436eV) occ=1.000

 Brillouin zone point:      5
    weight=  0.074074
    k     =<   0.000   0.000   0.333> . <b1,b2,b3> 
          =<   0.000   0.000   0.313>

 orbital energies:
     0.1005747E+02 ( 273.680eV) occ=0.000
     0.9869987E+00 (  26.858eV) occ=0.000
     0.9869742E+00 (  26.857eV) occ=0.000
     0.9503959E+00 (  25.862eV) occ=0.000
     0.9491967E+00 (  25.829eV) occ=0.000
     0.9491932E+00 (  25.829eV) occ=0.000
     0.9459377E+00 (  25.740eV) occ=0.000
     0.9099248E+00 (  24.761eV) occ=1.000
     0.8942072E+00 (  24.333eV) occ=1.000
     0.7938655E+00 (  21.602eV) occ=1.000
     0.7938616E+00 (  21.602eV) occ=1.000
     0.7542159E+00 (  20.523eV) occ=1.000
     0.6978913E+00 (  18.991eV) occ=1.000
     0.6978805E+00 (  18.990eV) occ=1.000
     0.6774081E+00 (  18.433eV) occ=1.000
     0.6451916E+00 (  17.557eV) occ=1.000
     0.6451902E+00 (  17.557eV) occ=1.000
     0.6265746E+00 (  17.050eV) occ=1.000
     0.6265719E+00 (  17.050eV) occ=1.000
     0.5755247E+00 (  15.661eV) occ=1.000
     0.5741610E+00 (  15.624eV) occ=1.000
     0.5741481E+00 (  15.623eV) occ=1.000
     0.3652124E+00 (   9.938eV) occ=1.000
     0.2237894E+00 (   6.090eV) occ=1.000

 Brillouin zone point:      6
    weight=  0.074074
    k     =<   0.333   0.000  -0.333> . <b1,b2,b3> 
          =<   0.313   0.000  -0.313>

 orbital energies:
     0.9958212E+00 (  27.098eV) occ=0.000
     0.9637815E+00 (  26.226eV) occ=0.000
     0.9637288E+00 (  26.225eV) occ=0.000
     0.9293956E+00 (  25.290eV) occ=0.999
     0.9020376E+00 (  24.546eV) occ=1.000
     0.9020168E+00 (  24.545eV) occ=1.000
     0.8746103E+00 (  23.800eV) occ=1.000
     0.8681304E+00 (  23.623eV) occ=1.000
     0.8457844E+00 (  23.015eV) occ=1.000
     0.8457709E+00 (  23.015eV) occ=1.000
     0.7816503E+00 (  21.270eV) occ=1.000
     0.7686232E+00 (  20.915eV) occ=1.000
     0.7151627E+00 (  19.461eV) occ=1.000
     0.6746550E+00 (  18.358eV) occ=1.000
     0.6746205E+00 (  18.358eV) occ=1.000
     0.6729723E+00 (  18.313eV) occ=1.000
     0.6607752E+00 (  17.981eV) occ=1.000
     0.6607427E+00 (  17.980eV) occ=1.000
     0.6575444E+00 (  17.893eV) occ=1.000
     0.6177056E+00 (  16.809eV) occ=1.000
     0.5064288E+00 (  13.781eV) occ=1.000
     0.4106579E+00 (  11.175eV) occ=1.000
     0.4106383E+00 (  11.174eV) occ=1.000
     0.2732764E+00 (   7.436eV) occ=1.000

 Brillouin zone point:      7
    weight=  0.074074
    k     =<   0.333  -0.333   0.333> . <b1,b2,b3> 
          =<   0.313  -0.313   0.313>

 orbital energies:
     0.9510028E+00 (  25.878eV) occ=0.000
     0.9505143E+00 (  25.865eV) occ=0.000
     0.9491830E+00 (  25.829eV) occ=0.000
     0.8689266E+00 (  23.645eV) occ=1.000
     0.8688970E+00 (  23.644eV) occ=1.000
     0.8394325E+00 (  22.842eV) occ=1.000
     0.8394314E+00 (  22.842eV) occ=1.000
     0.8394127E+00 (  22.842eV) occ=1.000
     0.7818082E+00 (  21.274eV) occ=1.000
     0.7818004E+00 (  21.274eV) occ=1.000
     0.7817787E+00 (  21.273eV) occ=1.000
     0.7369521E+00 (  20.054eV) occ=1.000
     0.7369434E+00 (  20.053eV) occ=1.000
     0.6683110E+00 (  18.186eV) occ=1.000
     0.6682991E+00 (  18.185eV) occ=1.000
     0.6682928E+00 (  18.185eV) occ=1.000
     0.6614648E+00 (  18.000eV) occ=1.000
     0.5849884E+00 (  15.918eV) occ=1.000
     0.5849800E+00 (  15.918eV) occ=1.000
     0.5849712E+00 (  15.918eV) occ=1.000
     0.4393906E+00 (  11.957eV) occ=1.000
     0.4393871E+00 (  11.956eV) occ=1.000
     0.4393714E+00 (  11.956eV) occ=1.000
     0.3178230E+00 (   8.648eV) occ=1.000

 Brillouin zone point:      8
    weight=  0.074074
    k     =<   0.000   0.333  -0.333> . <b1,b2,b3> 
          =<   0.000   0.313  -0.313>

 orbital energies:
     0.1012067E+02 ( 275.400eV) occ=0.000
     0.9637838E+00 (  26.226eV) occ=0.000
     0.9637305E+00 (  26.225eV) occ=0.000
     0.9293930E+00 (  25.290eV) occ=0.999
     0.9020338E+00 (  24.546eV) occ=1.000
     0.9020154E+00 (  24.545eV) occ=1.000
     0.8746123E+00 (  23.800eV) occ=1.000
     0.8681329E+00 (  23.623eV) occ=1.000
     0.8457842E+00 (  23.015eV) occ=1.000
     0.8457686E+00 (  23.015eV) occ=1.000
     0.7816497E+00 (  21.270eV) occ=1.000
     0.7686215E+00 (  20.915eV) occ=1.000
     0.7151613E+00 (  19.461eV) occ=1.000
     0.6746572E+00 (  18.359eV) occ=1.000
     0.6746211E+00 (  18.358eV) occ=1.000
     0.6729741E+00 (  18.313eV) occ=1.000
     0.6607744E+00 (  17.981eV) occ=1.000
     0.6607409E+00 (  17.980eV) occ=1.000
     0.6575455E+00 (  17.893eV) occ=1.000
     0.6177057E+00 (  16.809eV) occ=1.000
     0.5064271E+00 (  13.781eV) occ=1.000
     0.4106583E+00 (  11.175eV) occ=1.000
     0.4106384E+00 (  11.174eV) occ=1.000
     0.2732765E+00 (   7.436eV) occ=1.000

 Brillouin zone point:      9
    weight=  0.074074
    k     =<   0.333   0.333  -0.333> . <b1,b2,b3> 
          =<   0.313   0.313  -0.313>

 orbital energies:
     0.9507233E+00 (  25.871eV) occ=0.000
     0.9504892E+00 (  25.864eV) occ=0.000
     0.9488998E+00 (  25.821eV) occ=0.000
     0.8689263E+00 (  23.645eV) occ=1.000
     0.8688978E+00 (  23.644eV) occ=1.000
     0.8394337E+00 (  22.842eV) occ=1.000
     0.8394310E+00 (  22.842eV) occ=1.000
     0.8394114E+00 (  22.842eV) occ=1.000
     0.7818068E+00 (  21.274eV) occ=1.000
     0.7818017E+00 (  21.274eV) occ=1.000
     0.7817802E+00 (  21.273eV) occ=1.000
     0.7369519E+00 (  20.054eV) occ=1.000
     0.7369429E+00 (  20.053eV) occ=1.000
     0.6683115E+00 (  18.186eV) occ=1.000
     0.6682980E+00 (  18.185eV) occ=1.000
     0.6682928E+00 (  18.185eV) occ=1.000
     0.6614649E+00 (  18.000eV) occ=1.000
     0.5849892E+00 (  15.918eV) occ=1.000
     0.5849798E+00 (  15.918eV) occ=1.000
     0.5849708E+00 (  15.918eV) occ=1.000
     0.4393898E+00 (  11.957eV) occ=1.000
     0.4393868E+00 (  11.956eV) occ=1.000
     0.4393726E+00 (  11.956eV) occ=1.000
     0.3178229E+00 (   8.648eV) occ=1.000

 Brillouin zone point:     10
    weight=  0.074074
    k     =<   0.333   0.333   0.000> . <b1,b2,b3> 
          =<   0.313   0.313   0.000>

 orbital energies:
     0.9958028E+00 (  27.097eV) occ=0.000
     0.9638012E+00 (  26.227eV) occ=0.000
     0.9637921E+00 (  26.226eV) occ=0.000
     0.9293329E+00 (  25.289eV) occ=0.999
     0.9019658E+00 (  24.544eV) occ=1.000
     0.9019604E+00 (  24.544eV) occ=1.000
     0.8746414E+00 (  23.800eV) occ=1.000
     0.8682157E+00 (  23.626eV) occ=1.000
     0.8457696E+00 (  23.015eV) occ=1.000
     0.8457603E+00 (  23.014eV) occ=1.000
     0.7815948E+00 (  21.268eV) occ=1.000
     0.7686359E+00 (  20.916eV) occ=1.000
     0.7151191E+00 (  19.460eV) occ=1.000
     0.6746289E+00 (  18.358eV) occ=1.000
     0.6746269E+00 (  18.358eV) occ=1.000
     0.6729727E+00 (  18.313eV) occ=1.000
     0.6607692E+00 (  17.981eV) occ=1.000
     0.6607656E+00 (  17.980eV) occ=1.000
     0.6575110E+00 (  17.892eV) occ=1.000
     0.6177251E+00 (  16.809eV) occ=1.000
     0.5064237E+00 (  13.781eV) occ=1.000
     0.4106664E+00 (  11.175eV) occ=1.000
     0.4106599E+00 (  11.175eV) occ=1.000
     0.2732839E+00 (   7.436eV) occ=1.000

 Brillouin zone point:     11
    weight=  0.074074
    k     =<   0.000   0.333   0.000> . <b1,b2,b3> 
          =<   0.000   0.313   0.000>

 orbital energies:
     0.1005782E+02 ( 273.689eV) occ=0.000
     0.1005685E+02 ( 273.663eV) occ=0.000
     0.1004420E+02 ( 273.319eV) occ=0.000
     0.9504386E+00 (  25.863eV) occ=0.000
     0.9491602E+00 (  25.828eV) occ=0.000
     0.9490895E+00 (  25.826eV) occ=0.000
     0.9459934E+00 (  25.742eV) occ=0.000
     0.9098605E+00 (  24.759eV) occ=1.000
     0.8942884E+00 (  24.335eV) occ=1.000
     0.7938568E+00 (  21.602eV) occ=1.000
     0.7937790E+00 (  21.600eV) occ=1.000
     0.7542859E+00 (  20.525eV) occ=1.000
     0.6979243E+00 (  18.992eV) occ=1.000
     0.6979087E+00 (  18.991eV) occ=1.000
     0.6773879E+00 (  18.433eV) occ=1.000
     0.6451822E+00 (  17.556eV) occ=1.000
     0.6451394E+00 (  17.555eV) occ=1.000
     0.6265307E+00 (  17.049eV) occ=1.000
     0.6265266E+00 (  17.049eV) occ=1.000
     0.5755696E+00 (  15.662eV) occ=1.000
     0.5741667E+00 (  15.624eV) occ=1.000
     0.5741399E+00 (  15.623eV) occ=1.000
     0.3652390E+00 (   9.939eV) occ=1.000
     0.2237977E+00 (   6.090eV) occ=1.000

 Brillouin zone point:     12
    weight=  0.074074
    k     =<   0.333  -0.333   0.000> . <b1,b2,b3> 
          =<   0.313  -0.313   0.000>

 orbital energies:
     0.1012121E+02 ( 275.414eV) occ=0.000
     0.9638022E+00 (  26.227eV) occ=0.000
     0.9637913E+00 (  26.226eV) occ=0.000
     0.9293329E+00 (  25.289eV) occ=0.999
     0.9019639E+00 (  24.544eV) occ=1.000
     0.9019614E+00 (  24.544eV) occ=1.000
     0.8746412E+00 (  23.800eV) occ=1.000
     0.8682154E+00 (  23.626eV) occ=1.000
     0.8457690E+00 (  23.015eV) occ=1.000
     0.8457608E+00 (  23.015eV) occ=1.000
     0.7815947E+00 (  21.268eV) occ=1.000
     0.7686358E+00 (  20.916eV) occ=1.000
     0.7151197E+00 (  19.460eV) occ=1.000
     0.6746287E+00 (  18.358eV) occ=1.000
     0.6746268E+00 (  18.358eV) occ=1.000
     0.6729729E+00 (  18.313eV) occ=1.000
     0.6607710E+00 (  17.981eV) occ=1.000
     0.6607643E+00 (  17.980eV) occ=1.000
     0.6575111E+00 (  17.892eV) occ=1.000
     0.6177250E+00 (  16.809eV) occ=1.000
     0.5064234E+00 (  13.781eV) occ=1.000
     0.4106665E+00 (  11.175eV) occ=1.000
     0.4106599E+00 (  11.175eV) occ=1.000
     0.2732839E+00 (   7.436eV) occ=1.000

 Brillouin zone point:     13
    weight=  0.074074
    k     =<   0.333   0.000   0.000> . <b1,b2,b3> 
          =<   0.313   0.000   0.000>

 orbital energies:
     0.9989232E+00 (  27.182eV) occ=0.000
     0.9869144E+00 (  26.856eV) occ=0.000
     0.9868861E+00 (  26.855eV) occ=0.000
     0.9504405E+00 (  25.863eV) occ=0.000
     0.9491635E+00 (  25.828eV) occ=0.000
     0.9490895E+00 (  25.826eV) occ=0.000
     0.9459924E+00 (  25.742eV) occ=0.000
     0.9098646E+00 (  24.759eV) occ=1.000
     0.8942864E+00 (  24.335eV) occ=1.000
     0.7938603E+00 (  21.602eV) occ=1.000
     0.7937786E+00 (  21.600eV) occ=1.000
     0.7542824E+00 (  20.525eV) occ=1.000
     0.6979266E+00 (  18.992eV) occ=1.000
     0.6979066E+00 (  18.991eV) occ=1.000
     0.6773898E+00 (  18.433eV) occ=1.000
     0.6451814E+00 (  17.556eV) occ=1.000
     0.6451398E+00 (  17.555eV) occ=1.000
     0.6265335E+00 (  17.049eV) occ=1.000
     0.6265262E+00 (  17.049eV) occ=1.000
     0.5755659E+00 (  15.662eV) occ=1.000
     0.5741689E+00 (  15.624eV) occ=1.000
     0.5741391E+00 (  15.623eV) occ=1.000
     0.3652382E+00 (   9.939eV) occ=1.000
     0.2237976E+00 (   6.090eV) occ=1.000

 Brillouin zone point:     14
    weight=  0.037037
    k     =<   0.000   0.000   0.000> . <b1,b2,b3> 
          =<   0.000   0.000   0.000>

 orbital energies:
     0.9875518E+01 ( 268.729eV) occ=0.000
     0.9875417E+01 ( 268.726eV) occ=0.000
     0.9754327E+00 (  26.543eV) occ=0.000
     0.9422957E+00 (  25.641eV) occ=0.002
     0.9422852E+00 (  25.641eV) occ=0.002
     0.9422238E+00 (  25.639eV) occ=0.002
     0.8673096E+00 (  23.601eV) occ=1.000
     0.8672052E+00 (  23.598eV) occ=1.000
     0.8004800E+00 (  21.782eV) occ=1.000
     0.8004764E+00 (  21.782eV) occ=1.000
     0.8004028E+00 (  21.780eV) occ=1.000
     0.7857849E+00 (  21.382eV) occ=1.000
     0.7857580E+00 (  21.382eV) occ=1.000
     0.7857520E+00 (  21.382eV) occ=1.000
     0.6363625E+00 (  17.316eV) occ=1.000
     0.6363614E+00 (  17.316eV) occ=1.000
     0.6362979E+00 (  17.315eV) occ=1.000
     0.5155707E+00 (  14.030eV) occ=1.000
     0.5155561E+00 (  14.029eV) occ=1.000
     0.5155433E+00 (  14.029eV) occ=1.000
     0.4559241E+00 (  12.406eV) occ=1.000
     0.4559199E+00 (  12.406eV) occ=1.000
     0.4558704E+00 (  12.405eV) occ=1.000
     0.1717904E+00 (   4.675eV) occ=1.000

 Total BAND energy   :  -0.1450974425E+03


=== Spin Contamination ===
 
 <Sexact^2> =   0.000000000000000E+000
 <S^2>      =   0.000000000000000E+000
 
 
 Writing Crystallographic Information File:./perm/Ni-band.cif
   - cell not shifted (nwpw:cif_shift_cell .false.)

 output psi filename:./perm/Ni-band.movecs


== Timing ==

cputime in seconds
  prologue    :   0.178448E+01
  main loop   :   0.251227E+02
  epilogue    :   0.366614E+00
  total       :   0.272738E+02
  cputime/step:   0.374966E+00       (      67 evalulations,       0 linesearches)


Time spent doing                        total          step
  FFTs                       :   0.130100E+02  0.194179E+00
  dot products               :   0.152160E+01  0.227105E-01
  geodesic                   :   0.000000E+00  0.000000E+00
  ffm_dgemm                  :   0.000000E+00  0.000000E+00
  fmf_dgemm                  :   0.000000E+00  0.000000E+00
  m_diagonalize              :   0.000000E+00  0.000000E+00
    - m_tredq                :   0.000000E+00  0.000000E+00
    - m_getdiags             :   0.000000E+00  0.000000E+00
    - m_tqliq                :   0.000000E+00  0.000000E+00
    - m_eigsrt               :   0.000000E+00  0.000000E+00
  exchange correlation       :   0.404009E+00  0.602998E-02
  local pseudopotentials     :   0.120878E-03  0.180415E-05
  non-local pseudopotentials :   0.478906E+01  0.714784E-01
  hartree potentials         :   0.326705E-02  0.487619E-04
  ion-ion interaction        :   0.147700E-02  0.220448E-04
  structure factors          :   0.202360E+00  0.302029E-02
  phase factors              :   0.000000E+00  0.000000E+00
  masking and packing        :   0.169963E+01  0.253677E-01
  queue fft                  :   0.205294E+01  0.306409E-01
  queue fft (serial)         :   0.158833E+01  0.237064E-01
  queue fft (message passing):   0.410519E+00  0.612715E-02
  HFX potential              :   0.000000E+00  0.000000E+00
  qmmm LJ                    :   0.000000E+00  0.000000E+00
  qmmm residual Q            :   0.000000E+00  0.000000E+00
 
     >>>  JOB COMPLETED     AT Sun Sep 12 18:51:26 2010  <<<

 Task  times  cpu:       26.4s     wall:       27.3s
 
 
                                NWChem Input Module
                                -------------------
 
 
 
  Deleted DRIVER restart files 
 
 
 
                           NWChem Geometry Optimization
                           ----------------------------
 
 
 
 
  Ni FCC metal, monkhorst-pack=3x3x3, 5x5x5, and 7x7x7, fermi smearing, xc=pbe96
 
 
 maximum gradient threshold         (gmax) =   0.000450
 rms gradient threshold             (grms) =   0.000300
 maximum cartesian step threshold   (xmax) =   0.001800
 rms cartesian step threshold       (xrms) =   0.001200
 fixed trust radius                (trust) =   0.300000
 maximum step size to saddle      (sadstp) =   0.100000
 energy precision                  (eprec) =   1.0D-07
 maximum number of steps          (nptopt) =   40
 initial hessian option           (inhess) =    0
 line search option               (linopt) =    1
 hessian update option            (modupd) =    1
 saddle point option              (modsad) =    0
 initial eigen-mode to follow     (moddir) =    0
 initial variable to follow       (vardir) =    0
 follow first negative mode     (firstneg) =    T
 apply conjugacy                    (opcg) =    F
 source of zmatrix                         =           


          -------------------
          Energy Minimization
          -------------------

  INCLUDING STRESS !!!!!!!!!!!!!!!!
 
 Using diagonal initial Hessian 
  The initial hessian 

              1        2        3        4        5        6        7        8
    1   22.4401   0.0000   0.0000   0.0000   0.0000   0.0000   0.0000   0.0000
    2    0.0000  22.4401   0.0000   0.0000   0.0000   0.0000   0.0000   0.0000
    3    0.0000   0.0000  22.4439   0.0000   0.0000   0.0000   0.0000   0.0000
    4    0.0000   0.0000   0.0000  22.4401   0.0000   0.0000   0.0000   0.0000
    5    0.0000   0.0000   0.0000   0.0000  22.4401   0.0000   0.0000   0.0000
    6    0.0000   0.0000   0.0000   0.0000   0.0000  22.4439   0.0000   0.0000
    7    0.0000   0.0000   0.0000   0.0000   0.0000   0.0000  22.4401   0.0000
    8    0.0000   0.0000   0.0000   0.0000   0.0000   0.0000   0.0000  22.4401

              9       10       11       12       13       14       15       16
    9   22.4439   0.0000   0.0000   0.0000   0.0000   0.0000   0.0000   0.0000
   10    0.0000  22.4401   0.0000   0.0000   0.0000   0.0000   0.0000   0.0000
   11    0.0000   0.0000  22.4401   0.0000   0.0000   0.0000   0.0000   0.0000
   12    0.0000   0.0000   0.0000  22.4439   0.0000   0.0000   0.0000   0.0000
   13    0.0000   0.0000   0.0000   0.0000   0.5000   0.0000   0.0000   0.0000
   14    0.0000   0.0000   0.0000   0.0000   0.0000   0.5000   0.0000   0.0000
   15    0.0000   0.0000   0.0000   0.0000   0.0000   0.0000   0.5000   0.0000
   16    0.0000   0.0000   0.0000   0.0000   0.0000   0.0000   0.0000   0.5000

             17       18       19       20       21      
   17    0.5000   0.0000   0.0000   0.0000   0.0000
   18    0.0000   0.5000   0.0000   0.0000   0.0000
   19    0.0000   0.0000   0.5000   0.0000   0.0000
   20    0.0000   0.0000   0.0000   0.5000   0.0000
   21    0.0000   0.0000   0.0000   0.0000   0.5000

          --------
          Step   0
          --------
 
 
                         Geometry "geometry" -> "geometry"
                         ---------------------------------
 
 Output coordinates in angstroms (scale by  1.889725989 to convert to a.u.)
 
  No.       Tag          Charge          X              Y              Z
 ---- ---------------- ---------- -------------- -------------- --------------
    1 Ni                  28.0000     0.00000000     0.00000000     0.00000000
    2 Ni                  28.0000     0.00000000     1.77255000     1.77270000
    3 Ni                  28.0000     1.77255000     0.00000000     1.77270000
    4 Ni                  28.0000     1.77255000     1.77255000     0.00000000
 
      Lattice Parameters 
      ------------------ 
 
      lattice vectors in angstroms (scale by  1.889725989 to convert to a.u.)
 
      a1=<   3.545   0.000   0.000 >
      a2=<   0.000   3.545   0.000 >
      a3=<   0.000   0.000   3.545 >
      a=       3.545 b=      3.545 c=       3.545
      alpha=  90.000 beta=  90.000 gamma=  90.000
      omega=    44.6
 
      reciprocal lattice vectors in a.u.
 
      b1=<   0.938   0.000   0.000 >
      b2=<   0.000   0.938   0.000 >
      b3=<   0.000   0.000   0.938 >
 
      Atomic Mass 
      ----------- 
 
      Ni                57.935300
 
 
          **********************************************************
          *                                                        *
          *                   NWPW BAND Calculation                *
          *                                                        *
          *  [(bundled Grassman/Stiefel manifold implementation)]  *
          *                                                        *
          *         [ NorthWest Chemistry implementation ]         *
          *                                                        *
          *                version #1.10   01/31/03                *
          *                                                        *
          *  A pseudopotential plane-wave band structure program   *
          *  with Brillouin zone sampling for optimizing crystals, *
          *  slabs, and polymers.  Developed by Eric J. Bylaska    *
          *  , Edoardo Apra, and Patrick Nichols.                  *
          *                                                        *
          **********************************************************
     >>>  JOB STARTED       AT Sun Sep 12 18:51:26 2010  <<<
          ================ input data ========================
 
 pseudopotential is not correctly formatted:
 Ni.cpp                                            
 
 Generated formatted_filename: ./perm/Ni.cpp
 - Spline fitted, nray= 2985 -
 - filtered -
 Error reading psi - bad grid
 Error reading psi - bad grid
 Error reading psi - bad grid
 
 Grid is being converted:
 ------------------------
 
 To turn off automatic grid conversion:
 
 set nwpw:psi_nogrid .false.
 
 old_filename: Ni-band.movecs                                    
 new_filename: Ni-band.movecs                                    
 converting  :  14x 14x 14 -->  32x 32x 32
 converting .... psi:                     1  spin:                     1  nb:
                     1
 converting .... psi:                     2  spin:                     1  nb:
                     1
 converting .... psi:                     3  spin:                     1  nb:
                     1
 converting .... psi:                     4  spin:                     1  nb:
                     1
 converting .... psi:                     5  spin:                     1  nb:
                     1
 converting .... psi:                     6  spin:                     1  nb:
                     1
 converting .... psi:                     7  spin:                     1  nb:
                     1
 converting .... psi:                     8  spin:                     1  nb:
                     1
 converting .... psi:                     9  spin:                     1  nb:
                     1
 converting .... psi:                    10  spin:                     1  nb:
                     1
 converting .... psi:                    11  spin:                     1  nb:
                     1
 converting .... psi:                    12  spin:                     1  nb:
                     1
 converting .... psi:                    13  spin:                     1  nb:
                     1
 converting .... psi:                    14  spin:                     1  nb:
                     1
 converting .... psi:                    15  spin:                     1  nb:
                     1
 converting .... psi:                    16  spin:                     1  nb:
                     1
 converting .... psi:                    17  spin:                     1  nb:
                     1
 converting .... psi:                    18  spin:                     1  nb:
                     1
 converting .... psi:                    19  spin:                     1  nb:
                     1
 converting .... psi:                    20  spin:                     1  nb:
                     1
 converting .... psi:                    21  spin:                     1  nb:
                     1
 converting .... psi:                    22  spin:                     1  nb:
                     1
 converting .... psi:                    23  spin:                     1  nb:
                     1
 converting .... psi:                    24  spin:                     1  nb:
                     1
 converting .... psi:                     1  spin:                     1  nb:
                     2
 converting .... psi:                     2  spin:                     1  nb:
                     2
 converting .... psi:                     3  spin:                     1  nb:
                     2
 converting .... psi:                     4  spin:                     1  nb:
                     2
 converting .... psi:                     5  spin:                     1  nb:
                     2
 converting .... psi:                     6  spin:                     1  nb:
                     2
 converting .... psi:                     7  spin:                     1  nb:
                     2
 converting .... psi:                     8  spin:                     1  nb:
                     2
 converting .... psi:                     9  spin:                     1  nb:
                     2
 converting .... psi:                    10  spin:                     1  nb:
                     2
 converting .... psi:                    11  spin:                     1  nb:
                     2
 converting .... psi:                    12  spin:                     1  nb:
                     2
 converting .... psi:                    13  spin:                     1  nb:
                     2
 converting .... psi:                    14  spin:                     1  nb:
                     2
 converting .... psi:                    15  spin:                     1  nb:
                     2
 converting .... psi:                    16  spin:                     1  nb:
                     2
 converting .... psi:                    17  spin:                     1  nb:
                     2
 converting .... psi:                    18  spin:                     1  nb:
                     2
 converting .... psi:                    19  spin:                     1  nb:
                     2
 converting .... psi:                    20  spin:                     1  nb:
                     2
 converting .... psi:                    21  spin:                     1  nb:
                     2
 converting .... psi:                    22  spin:                     1  nb:
                     2
 converting .... psi:                    23  spin:                     1  nb:
                     2
 converting .... psi:                    24  spin:                     1  nb:
                     2
 converting .... psi:                     1  spin:                     1  nb:
                     3
 converting .... psi:                     2  spin:                     1  nb:
                     3
 converting .... psi:                     3  spin:                     1  nb:
                     3
 converting .... psi:                     4  spin:                     1  nb:
                     3
 converting .... psi:                     5  spin:                     1  nb:
                     3
 converting .... psi:                     6  spin:                     1  nb:
                     3
 converting .... psi:                     7  spin:                     1  nb:
                     3
 converting .... psi:                     8  spin:                     1  nb:
                     3
 converting .... psi:                     9  spin:                     1  nb:
                     3
 converting .... psi:                    10  spin:                     1  nb:
                     3
 converting .... psi:                    11  spin:                     1  nb:
                     3
 converting .... psi:                    12  spin:                     1  nb:
                     3
 converting .... psi:                    13  spin:                     1  nb:
                     3
 converting .... psi:                    14  spin:                     1  nb:
                     3
 converting .... psi:                    15  spin:                     1  nb:
                     3
 converting .... psi:                    16  spin:                     1  nb:
                     3
 converting .... psi:                    17  spin:                     1  nb:
                     3
 converting .... psi:                    18  spin:                     1  nb:
                     3
 converting .... psi:                    19  spin:                     1  nb:
                     3
 converting .... psi:                    20  spin:                     1  nb:
                     3
 converting .... psi:                    21  spin:                     1  nb:
                     3
 converting .... psi:                    22  spin:                     1  nb:
                     3
 converting .... psi:                    23  spin:                     1  nb:
                     3
 converting .... psi:                    24  spin:                     1  nb:
                     3
 converting .... psi:                     1  spin:                     1  nb:
                     4
 converting .... psi:                     2  spin:                     1  nb:
                     4
 converting .... psi:                     3  spin:                     1  nb:
                     4
 converting .... psi:                     4  spin:                     1  nb:
                     4
 converting .... psi:                     5  spin:                     1  nb:
                     4
 converting .... psi:                     6  spin:                     1  nb:
                     4
 converting .... psi:                     7  spin:                     1  nb:
                     4
 converting .... psi:                     8  spin:                     1  nb:
                     4
 converting .... psi:                     9  spin:                     1  nb:
                     4
 converting .... psi:                    10  spin:                     1  nb:
                     4
 converting .... psi:                    11  spin:                     1  nb:
                     4
 converting .... psi:                    12  spin:                     1  nb:
                     4
 converting .... psi:                    13  spin:                     1  nb:
                     4
 converting .... psi:                    14  spin:                     1  nb:
                     4
 converting .... psi:                    15  spin:                     1  nb:
                     4
 converting .... psi:                    16  spin:                     1  nb:
                     4
 converting .... psi:                    17  spin:                     1  nb:
                     4
 converting .... psi:                    18  spin:                     1  nb:
                     4
 converting .... psi:                    19  spin:                     1  nb:
                     4
 converting .... psi:                    20  spin:                     1  nb:
                     4
 converting .... psi:                    21  spin:                     1  nb:
                     4
 converting .... psi:                    22  spin:                     1  nb:
                     4
 converting .... psi:                    23  spin:                     1  nb:
                     4
 converting .... psi:                    24  spin:                     1  nb:
                     4
 converting .... psi:                     1  spin:                     1  nb:
                     5
 converting .... psi:                     2  spin:                     1  nb:
                     5
 converting .... psi:                     3  spin:                     1  nb:
                     5
 converting .... psi:                     4  spin:                     1  nb:
                     5
 converting .... psi:                     5  spin:                     1  nb:
                     5
 converting .... psi:                     6  spin:                     1  nb:
                     5
 converting .... psi:                     7  spin:                     1  nb:
                     5
 converting .... psi:                     8  spin:                     1  nb:
                     5
 converting .... psi:                     9  spin:                     1  nb:
                     5
 converting .... psi:                    10  spin:                     1  nb:
                     5
 converting .... psi:                    11  spin:                     1  nb:
                     5
 converting .... psi:                    12  spin:                     1  nb:
                     5
 converting .... psi:                    13  spin:                     1  nb:
                     5
 converting .... psi:                    14  spin:                     1  nb:
                     5
 converting .... psi:                    15  spin:                     1  nb:
                     5
 converting .... psi:                    16  spin:                     1  nb:
                     5
 converting .... psi:                    17  spin:                     1  nb:
                     5
 converting .... psi:                    18  spin:                     1  nb:
                     5
 converting .... psi:                    19  spin:                     1  nb:
                     5
 converting .... psi:                    20  spin:                     1  nb:
                     5
 converting .... psi:                    21  spin:                     1  nb:
                     5
 converting .... psi:                    22  spin:                     1  nb:
                     5
 converting .... psi:                    23  spin:                     1  nb:
                     5
 converting .... psi:                    24  spin:                     1  nb:
                     5
 converting .... psi:                     1  spin:                     1  nb:
                     6
 converting .... psi:                     2  spin:                     1  nb:
                     6
 converting .... psi:                     3  spin:                     1  nb:
                     6
 converting .... psi:                     4  spin:                     1  nb:
                     6
 converting .... psi:                     5  spin:                     1  nb:
                     6
 converting .... psi:                     6  spin:                     1  nb:
                     6
 converting .... psi:                     7  spin:                     1  nb:
                     6
 converting .... psi:                     8  spin:                     1  nb:
                     6
 converting .... psi:                     9  spin:                     1  nb:
                     6
 converting .... psi:                    10  spin:                     1  nb:
                     6
 converting .... psi:                    11  spin:                     1  nb:
                     6
 converting .... psi:                    12  spin:                     1  nb:
                     6
 converting .... psi:                    13  spin:                     1  nb:
                     6
 converting .... psi:                    14  spin:                     1  nb:
                     6
 converting .... psi:                    15  spin:                     1  nb:
                     6
 converting .... psi:                    16  spin:                     1  nb:
                     6
 converting .... psi:                    17  spin:                     1  nb:
                     6
 converting .... psi:                    18  spin:                     1  nb:
                     6
 converting .... psi:                    19  spin:                     1  nb:
                     6
 converting .... psi:                    20  spin:                     1  nb:
                     6
 converting .... psi:                    21  spin:                     1  nb:
                     6
 converting .... psi:                    22  spin:                     1  nb:
                     6
 converting .... psi:                    23  spin:                     1  nb:
                     6
 converting .... psi:                    24  spin:                     1  nb:
                     6
 converting .... psi:                     1  spin:                     1  nb:
                     7
 converting .... psi:                     2  spin:                     1  nb:
                     7
 converting .... psi:                     3  spin:                     1  nb:
                     7
 converting .... psi:                     4  spin:                     1  nb:
                     7
 converting .... psi:                     5  spin:                     1  nb:
                     7
 converting .... psi:                     6  spin:                     1  nb:
                     7
 converting .... psi:                     7  spin:                     1  nb:
                     7
 converting .... psi:                     8  spin:                     1  nb:
                     7
 converting .... psi:                     9  spin:                     1  nb:
                     7
 converting .... psi:                    10  spin:                     1  nb:
                     7
 converting .... psi:                    11  spin:                     1  nb:
                     7
 converting .... psi:                    12  spin:                     1  nb:
                     7
 converting .... psi:                    13  spin:                     1  nb:
                     7
 converting .... psi:                    14  spin:                     1  nb:
                     7
 converting .... psi:                    15  spin:                     1  nb:
                     7
 converting .... psi:                    16  spin:                     1  nb:
                     7
 converting .... psi:                    17  spin:                     1  nb:
                     7
 converting .... psi:                    18  spin:                     1  nb:
                     7
 converting .... psi:                    19  spin:                     1  nb:
                     7
 converting .... psi:                    20  spin:                     1  nb:
                     7
 converting .... psi:                    21  spin:                     1  nb:
                     7
 converting .... psi:                    22  spin:                     1  nb:
                     7
 converting .... psi:                    23  spin:                     1  nb:
                     7
 converting .... psi:                    24  spin:                     1  nb:
                     7
 converting .... psi:                     1  spin:                     1  nb:
                     8
 converting .... psi:                     2  spin:                     1  nb:
                     8
 converting .... psi:                     3  spin:                     1  nb:
                     8
 converting .... psi:                     4  spin:                     1  nb:
                     8
 converting .... psi:                     5  spin:                     1  nb:
                     8
 converting .... psi:                     6  spin:                     1  nb:
                     8
 converting .... psi:                     7  spin:                     1  nb:
                     8
 converting .... psi:                     8  spin:                     1  nb:
                     8
 converting .... psi:                     9  spin:                     1  nb:
                     8
 converting .... psi:                    10  spin:                     1  nb:
                     8
 converting .... psi:                    11  spin:                     1  nb:
                     8
 converting .... psi:                    12  spin:                     1  nb:
                     8
 converting .... psi:                    13  spin:                     1  nb:
                     8
 converting .... psi:                    14  spin:                     1  nb:
                     8
 converting .... psi:                    15  spin:                     1  nb:
                     8
 converting .... psi:                    16  spin:                     1  nb:
                     8
 converting .... psi:                    17  spin:                     1  nb:
                     8
 converting .... psi:                    18  spin:                     1  nb:
                     8
 converting .... psi:                    19  spin:                     1  nb:
                     8
 converting .... psi:                    20  spin:                     1  nb:
                     8
 converting .... psi:                    21  spin:                     1  nb:
                     8
 converting .... psi:                    22  spin:                     1  nb:
                     8
 converting .... psi:                    23  spin:                     1  nb:
                     8
 converting .... psi:                    24  spin:                     1  nb:
                     8
 converting .... psi:                     1  spin:                     1  nb:
                     9
 converting .... psi:                     2  spin:                     1  nb:
                     9
 converting .... psi:                     3  spin:                     1  nb:
                     9
 converting .... psi:                     4  spin:                     1  nb:
                     9
 converting .... psi:                     5  spin:                     1  nb:
                     9
 converting .... psi:                     6  spin:                     1  nb:
                     9
 converting .... psi:                     7  spin:                     1  nb:
                     9
 converting .... psi:                     8  spin:                     1  nb:
                     9
 converting .... psi:                     9  spin:                     1  nb:
                     9
 converting .... psi:                    10  spin:                     1  nb:
                     9
 converting .... psi:                    11  spin:                     1  nb:
                     9
 converting .... psi:                    12  spin:                     1  nb:
                     9
 converting .... psi:                    13  spin:                     1  nb:
                     9
 converting .... psi:                    14  spin:                     1  nb:
                     9
 converting .... psi:                    15  spin:                     1  nb:
                     9
 converting .... psi:                    16  spin:                     1  nb:
                     9
 converting .... psi:                    17  spin:                     1  nb:
                     9
 converting .... psi:                    18  spin:                     1  nb:
                     9
 converting .... psi:                    19  spin:                     1  nb:
                     9
 converting .... psi:                    20  spin:                     1  nb:
                     9
 converting .... psi:                    21  spin:                     1  nb:
                     9
 converting .... psi:                    22  spin:                     1  nb:
                     9
 converting .... psi:                    23  spin:                     1  nb:
                     9
 converting .... psi:                    24  spin:                     1  nb:
                     9
 converting .... psi:                     1  spin:                     1  nb:
                    10
 converting .... psi:                     2  spin:                     1  nb:
                    10
 converting .... psi:                     3  spin:                     1  nb:
                    10
 converting .... psi:                     4  spin:                     1  nb:
                    10
 converting .... psi:                     5  spin:                     1  nb:
                    10
 converting .... psi:                     6  spin:                     1  nb:
                    10
 converting .... psi:                     7  spin:                     1  nb:
                    10
 converting .... psi:                     8  spin:                     1  nb:
                    10
 converting .... psi:                     9  spin:                     1  nb:
                    10
 converting .... psi:                    10  spin:                     1  nb:
                    10
 converting .... psi:                    11  spin:                     1  nb:
                    10
 converting .... psi:                    12  spin:                     1  nb:
                    10
 converting .... psi:                    13  spin:                     1  nb:
                    10
 converting .... psi:                    14  spin:                     1  nb:
                    10
 converting .... psi:                    15  spin:                     1  nb:
                    10
 converting .... psi:                    16  spin:                     1  nb:
                    10
 converting .... psi:                    17  spin:                     1  nb:
                    10
 converting .... psi:                    18  spin:                     1  nb:
                    10
 converting .... psi:                    19  spin:                     1  nb:
                    10
 converting .... psi:                    20  spin:                     1  nb:
                    10
 converting .... psi:                    21  spin:                     1  nb:
                    10
 converting .... psi:                    22  spin:                     1  nb:
                    10
 converting .... psi:                    23  spin:                     1  nb:
                    10
 converting .... psi:                    24  spin:                     1  nb:
                    10
 converting .... psi:                     1  spin:                     1  nb:
                    11
 converting .... psi:                     2  spin:                     1  nb:
                    11
 converting .... psi:                     3  spin:                     1  nb:
                    11
 converting .... psi:                     4  spin:                     1  nb:
                    11
 converting .... psi:                     5  spin:                     1  nb:
                    11
 converting .... psi:                     6  spin:                     1  nb:
                    11
 converting .... psi:                     7  spin:                     1  nb:
                    11
 converting .... psi:                     8  spin:                     1  nb:
                    11
 converting .... psi:                     9  spin:                     1  nb:
                    11
 converting .... psi:                    10  spin:                     1  nb:
                    11
 converting .... psi:                    11  spin:                     1  nb:
                    11
 converting .... psi:                    12  spin:                     1  nb:
                    11
 converting .... psi:                    13  spin:                     1  nb:
                    11
 converting .... psi:                    14  spin:                     1  nb:
                    11
 converting .... psi:                    15  spin:                     1  nb:
                    11
 converting .... psi:                    16  spin:                     1  nb:
                    11
 converting .... psi:                    17  spin:                     1  nb:
                    11
 converting .... psi:                    18  spin:                     1  nb:
                    11
 converting .... psi:                    19  spin:                     1  nb:
                    11
 converting .... psi:                    20  spin:                     1  nb:
                    11
 converting .... psi:                    21  spin:                     1  nb:
                    11
 converting .... psi:                    22  spin:                     1  nb:
                    11
 converting .... psi:                    23  spin:                     1  nb:
                    11
 converting .... psi:                    24  spin:                     1  nb:
                    11
 converting .... psi:                     1  spin:                     1  nb:
                    12
 converting .... psi:                     2  spin:                     1  nb:
                    12
 converting .... psi:                     3  spin:                     1  nb:
                    12
 converting .... psi:                     4  spin:                     1  nb:
                    12
 converting .... psi:                     5  spin:                     1  nb:
                    12
 converting .... psi:                     6  spin:                     1  nb:
                    12
 converting .... psi:                     7  spin:                     1  nb:
                    12
 converting .... psi:                     8  spin:                     1  nb:
                    12
 converting .... psi:                     9  spin:                     1  nb:
                    12
 converting .... psi:                    10  spin:                     1  nb:
                    12
 converting .... psi:                    11  spin:                     1  nb:
                    12
 converting .... psi:                    12  spin:                     1  nb:
                    12
 converting .... psi:                    13  spin:                     1  nb:
                    12
 converting .... psi:                    14  spin:                     1  nb:
                    12
 converting .... psi:                    15  spin:                     1  nb:
                    12
 converting .... psi:                    16  spin:                     1  nb:
                    12
 converting .... psi:                    17  spin:                     1  nb:
                    12
 converting .... psi:                    18  spin:                     1  nb:
                    12
 converting .... psi:                    19  spin:                     1  nb:
                    12
 converting .... psi:                    20  spin:                     1  nb:
                    12
 converting .... psi:                    21  spin:                     1  nb:
                    12
 converting .... psi:                    22  spin:                     1  nb:
                    12
 converting .... psi:                    23  spin:                     1  nb:
                    12
 converting .... psi:                    24  spin:                     1  nb:
                    12
 converting .... psi:                     1  spin:                     1  nb:
                    13
 converting .... psi:                     2  spin:                     1  nb:
                    13
 converting .... psi:                     3  spin:                     1  nb:
                    13
 converting .... psi:                     4  spin:                     1  nb:
                    13
 converting .... psi:                     5  spin:                     1  nb:
                    13
 converting .... psi:                     6  spin:                     1  nb:
                    13
 converting .... psi:                     7  spin:                     1  nb:
                    13
 converting .... psi:                     8  spin:                     1  nb:
                    13
 converting .... psi:                     9  spin:                     1  nb:
                    13
 converting .... psi:                    10  spin:                     1  nb:
                    13
 converting .... psi:                    11  spin:                     1  nb:
                    13
 converting .... psi:                    12  spin:                     1  nb:
                    13
 converting .... psi:                    13  spin:                     1  nb:
                    13
[...]
      maximum iterations =    1000 (   10 inner  100 outer )

 Kohn-Sham scf parameters:
      Kohn-Sham algorithm  = conjugate gradient
      Kohn-Sham iterations =   5 (  0 outer)
      scf algorithm        = Anderson density mixing
      scf mixing type      = density
      scf mixing parameter = 0.2500
      Kerker damping       = 2.0000

 fractional smearing parameters:
      smearing algorithm   = Fermi-Dirac
      smearing parameter   = 0.100E-02 (  315.8 K)



= energy calculation =


          =========== scf minimization (density)  ============
     >>>  ITERATION STARTED AT Sun Sep 12 20:20:37 2010  <<<
    iter.           Energy         DeltaE       DeltaRho        DeltaV  
    ---------------------------------------------------------------------
       1   -0.1713514444E+03   -0.58632E-02    0.16103E-03    0.15452E-02
       2   -0.1713528475E+03   -0.14030E-02    0.89573E-04    0.90300E-03
       3   -0.1713537466E+03   -0.89917E-03    0.47984E-04    0.50878E-03
       4   -0.1713541819E+03   -0.43523E-03    0.27484E-04    0.30211E-03
       5   -0.1713545363E+03   -0.35449E-03    0.14671E-04    0.16609E-03
       6   -0.1713547334E+03   -0.19707E-03    0.81903E-05    0.93540E-04
       7   -0.1713549224E+03   -0.18900E-03    0.38636E-05    0.42649E-04
       8   -0.1713549776E+03   -0.55215E-04    0.22524E-05    0.24073E-04
       9   -0.1713550598E+03   -0.82192E-04    0.37607E-05    0.94932E-05
      10   -0.1713550657E+03   -0.58319E-05    0.84684E-05    0.38471E-05
      11   -0.1713550733E+03   -0.76119E-05    0.39196E-06    0.21172E-05
      12   -0.1713550768E+03   -0.35468E-05    0.16877E-06    0.12027E-05
      13   -0.1713550765E+03    0.32491E-06    0.87864E-07    0.68498E-06
      14   -0.1713550763E+03    0.15238E-06    0.52311E-07    0.41476E-06
      15   -0.1713550761E+03    0.21682E-06    0.30702E-07    0.24963E-06
      16   -0.1713550760E+03    0.80198E-07    0.18495E-07    0.15339E-06
      17   -0.1713550760E+03    0.69944E-07    0.10813E-07    0.91898E-07
      18   -0.1713550760E+03    0.15633E-08    0.65772E-08    0.56752E-07
      19   -0.1713550760E+03    0.38916E-08    0.38444E-08    0.33957E-07
      20   -0.1713550760E+03   -0.28386E-07    0.46979E-08    0.21291E-07
  *** tolerance ok.    iteration terminated.
     >>>  ITERATION ENDED   AT Sun Sep 12 20:29:14 2010  <<<


          =============  summary of results  =================
 
 number of electrons: spin up=   20.00000  down=   20.00000 (real space)

 total     energy    :  -0.1713559015E+03 (   -0.42839E+02/ion)
 total orbital energy:   0.1977458043E+02 (    0.82394E+00/electron)
 hartree   energy    :   0.2373243347E+02 (    0.98885E+00/electron)
 exc-corr  energy    :  -0.6522188855E+02 (   -0.27176E+01/electron)
 ion-ion   energy    :  -0.1396584777E+03 (   -0.34915E+02/ion)
 smearing  energy    :  -0.8254983692E-03 (   -0.34396E-04/electron)

 K.S. kinetic energy :   0.1539000800E+03 (    0.64125E+01/electron)
 K.S. V_l  energy    :   0.2379556533E+03 (    0.99148E+01/electron)
 K.S. V_nl energy    :  -0.1594990705E+03 (   -0.66458E+01/electron)
 K.S. V_Hart energy  :   0.4746486694E+02 (    0.19777E+01/electron)
 K.S. V_xc energy    :  -0.3748479875E+02 (   -0.15619E+01/electron)
 K.S. V_so energy    :   0.0000000000E+00 (    0.00000E+00/electron)
 Virial Coefficient  :   0.5746368095E+00

 Fermi energy =     0.5745232E+00 (  15.634eV)

 orbital energies not printed - number of k-points is very large

 Total BAND energy   :  -0.1713559015E+03


=== Spin Contamination ===
 
 <Sexact^2> =   0.000000000000000E+000
 <S^2>      =   0.000000000000000E+000
 


========================
= Gradient calculation =
========================


Translation force removed: (    0.00000    0.00000    0.00000)


          =============  Ion Gradients =================
 Ion Positions:
        1 Ni   (    0.00000    0.00000    0.00000 ) - fixed
        2 Ni   (   -0.00001   -3.28289   -3.28297 ) - fixed
        3 Ni   (   -3.28286   -0.00002   -3.28296 ) - fixed
        4 Ni   (   -3.28285    3.28287    0.00001 ) - fixed
 Ion Forces:
        1 Ni   (    0.00000    0.00000    0.00000 )
        2 Ni   (    0.00000    0.00000    0.00000 )
        3 Ni   (    0.00000    0.00000    0.00000 )
        4 Ni   (    0.00000    0.00000    0.00000 )
        C.O.M. (    0.00000    0.00000    0.00000 )
          ===============================================
          |F|       =   0.000000E+00
          |F|/nion  =   0.000000E+00
          max|Fatom|=   0.000000E+00 (   0.000eV/Angstrom)


 pseudopotential is not correctly formatted:
 Ni.cpp2                                           
 
 pseudopotential is not correctly formatted-bad brillioun zone:
 Ni.cpp2                                           
 
 Generated formatted_stress_filename: ./perm/Ni.cpp2
 - Spline fitted, nray= 2981 -
 - filtered -


======================
= Stress calculation =
======================


          ============= ke ==============
      S =  (  -15.62623    0.00008   -0.00003 )
           (    0.00008  -15.62612    0.00000 )
           (   -0.00003    0.00000  -15.62575 )
          ===================================================
          |S|      = 0.27065E+02
          pressure = -.156E+02 au
                   = -.460E+04 Mbar
                   = -.460E+06 GPa
                   = -.454E+10 atm



======================
= Stress calculation =
======================


          ============= coulomb ==============
      S =  (   -1.20487    0.00003   -0.00001 )
           (    0.00003   -1.20486    0.00000 )
           (   -0.00001    0.00000   -1.20482 )
          ===================================================
          |S|      = 0.20869E+01
          pressure = -.120E+01 au
                   = -.354E+03 Mbar
                   = -.354E+05 GPa
                   = -.350E+09 atm



======================
= Stress calculation =
======================


          ============= local ==============
      S =  (   -8.77854   -0.00002    0.00001 )
           (   -0.00002   -8.77849    0.00000 )
           (    0.00001    0.00000   -8.77829 )
          ===================================================
          |S|      = 0.15205E+02
          pressure = -.878E+01 au
                   = -.258E+04 Mbar
                   = -.258E+06 GPa
                   = -.255E+10 atm



======================
= Stress calculation =
======================


          ============= nonlocal ==============
      S =  (   16.53130   -0.00008    0.00004 )
           (   -0.00008   16.53118   -0.00001 )
           (    0.00004   -0.00001   16.53078 )
          ===================================================
          |S|      = 0.28633E+02
          pressure = 0.165E+02 au
                   = 0.486E+04 Mbar
                   = 0.486E+06 GPa
                   = 0.480E+10 atm



======================
= Stress calculation =
======================


          ============= xc1 ==============
      S =  (   -4.10174    0.00002   -0.00001 )
           (    0.00002   -4.10171    0.00000 )
           (   -0.00001    0.00000   -4.10160 )
          ===================================================
          |S|      = 0.71043E+01
          pressure = -.410E+01 au
                   = -.121E+04 Mbar
                   = -.121E+06 GPa
                   = -.119E+10 atm



======================
= Stress calculation =
======================


          ============= xc2 ==============
      S =  (    6.08940   -0.00003    0.00001 )
           (   -0.00003    6.08936    0.00000 )
           (    0.00001    0.00000    6.08920 )
          ===================================================
          |S|      = 0.10547E+02
          pressure = 0.609E+01 au
                   = 0.179E+04 Mbar
                   = 0.179E+06 GPa
                   = 0.177E+10 atm



======================
= Stress calculation =
======================


          ============= xc ==============
      S =  (    1.98766   -0.00001    0.00000 )
           (   -0.00001    1.98765    0.00000 )
           (    0.00000    0.00000    1.98760 )
          ===================================================
          |S|      = 0.34427E+01
          pressure = 0.199E+01 au
                   = 0.585E+03 Mbar
                   = 0.585E+05 GPa
                   = 0.577E+09 atm



======================
= Stress calculation =
======================


          ============= ewald ==============
      S =  (    7.09026    0.00001    0.00000 )
           (    0.00001    7.09021    0.00000 )
           (    0.00000    0.00000    7.09006 )
          ===================================================
          |S|      = 0.12281E+02
          pressure = 0.709E+01 au
                   = 0.209E+04 Mbar
                   = 0.209E+06 GPa
                   = 0.206E+10 atm



======================
= Stress calculation =
======================


          ============= total gradient ==============
      S =  (   -0.00042    0.00000    0.00000 )
           (    0.00000   -0.00042    0.00000 )
           (    0.00000    0.00000   -0.00041 )
          ===================================================
          |S|      = 0.72067E-03
          pressure = -.416E-03 au
                   = -.122E+00 Mbar
                   = -.122E+02 GPa
                   = -.121E+06 atm

 
       dE/da     =    -0.00042
       dE/db     =    -0.00042
       dE/dc     =    -0.00041
       dE/dalpha =     0.00000
       dE/dbeta  =     0.00001
       dE/dgamma =    -0.00002
 


======================
= Stress calculation =
======================


          ============= Internal Stress Tensor ==============
      S =  (    0.00001    0.00000    0.00000 )
           (    0.00000    0.00001    0.00000 )
           (    0.00000    0.00000    0.00001 )
          ===================================================
          |S|      = 0.16717E-04
          pressure = 0.965E-05 au
                   = 0.284E-02 Mbar
                   = 0.284E+00 GPa
                   = 0.280E+04 atm

 
 Writing Crystallographic Information File:./perm/nickel777.opt.cif
   - cell not shifted (nwpw:cif_shift_cell .false.)

 output psi filename:./perm/Ni-band.movecs


== Timing ==

cputime in seconds
  prologue    :   0.639640E+02
  main loop   :   0.577694E+03
  epilogue    :   0.236608E+02
  total       :   0.665319E+03
  cputime/step:   0.275092E+02       (      21 evalulations,       0 linesearches)


Time spent doing                        total          step
  FFTs                       :   0.206447E+03  0.983081E+01
  dot products               :   0.640493E+02  0.304996E+01
  geodesic                   :   0.000000E+00  0.000000E+00
  ffm_dgemm                  :   0.000000E+00  0.000000E+00
  fmf_dgemm                  :   0.000000E+00  0.000000E+00
  m_diagonalize              :   0.000000E+00  0.000000E+00
    - m_tredq                :   0.000000E+00  0.000000E+00
    - m_getdiags             :   0.000000E+00  0.000000E+00
    - m_tqliq                :   0.000000E+00  0.000000E+00
    - m_eigsrt               :   0.000000E+00  0.000000E+00
  exchange correlation       :   0.865619E+00  0.412199E-01
  local pseudopotentials     :   0.806427E-02  0.384013E-03
  non-local pseudopotentials :   0.126874E+03  0.604160E+01
  hartree potentials         :   0.945878E-02  0.450418E-03
  ion-ion interaction        :   0.573909E-01  0.273290E-02
  structure factors          :   0.750712E+01  0.357482E+00
  phase factors              :   0.000000E+00  0.000000E+00
  masking and packing        :   0.366971E+02  0.174748E+01
  queue fft                  :   0.588841E+02  0.280400E+01
  queue fft (serial)         :   0.243165E+02  0.115793E+01
  queue fft (message passing):   0.312423E+02  0.148773E+01
  HFX potential              :   0.000000E+00  0.000000E+00
  qmmm LJ                    :   0.000000E+00  0.000000E+00
  qmmm residual Q            :   0.000000E+00  0.000000E+00
 
     >>>  JOB COMPLETED     AT Sun Sep 12 20:30:38 2010  <<<

  Step       Energy      Delta E   Gmax     Grms     Xrms     Xmax   Walltime
  ---- ---------------- -------- -------- -------- -------- -------- --------
@    2    -171.35590149 -3.1D-06  0.00042  0.00016  0.00032  0.00084   5979.2
                                     ok       ok       ok       ok  


      ----------------------
      Optimization converged
      ----------------------


  Step       Energy      Delta E   Gmax     Grms     Xrms     Xmax   Walltime
  ---- ---------------- -------- -------- -------- -------- -------- --------
@    2    -171.35590149 -3.1D-06  0.00042  0.00016  0.00032  0.00084   5979.2
                                     ok       ok       ok       ok  

 
 
                         Geometry "geometry" -> "geometry"
                         ---------------------------------
 
 Output coordinates in angstroms (scale by  1.889725989 to convert to a.u.)
 
  No.       Tag          Charge          X              Y              Z
 ---- ---------------- ---------- -------------- -------------- --------------
    1 Ni                  28.0000     0.00000000     0.00000000     0.00000000
    2 Ni                  28.0000     0.00000570     1.73723185     1.73727535
    3 Ni                  28.0000     1.73721393     0.00001074     1.73727031
    4 Ni                  28.0000     1.73722812     1.73724100    -0.00000344
 
      Lattice Parameters 
      ------------------ 
 
      lattice vectors in angstroms (scale by  1.889725989 to convert to a.u.)
 
      a1=<   3.474   0.000   0.000 >
      a2=<   0.000   3.474   0.000 >
      a3=<   0.000   0.000   3.475 >
      a=       3.474 b=      3.474 c=       3.475
      alpha=  90.000 beta=  90.000 gamma=  89.999
      omega=    41.9
 
      reciprocal lattice vectors in a.u.
 
      b1=<   0.957   0.000   0.000 >
      b2=<   0.000   0.957   0.000 >
      b3=<   0.000   0.000   0.957 >
 
      Atomic Mass 
      ----------- 
 
      Ni                57.935300
 
 
 ==============================================================================
                                internuclear distances
 ------------------------------------------------------------------------------
       center one      |      center two      | atomic units |  angstroms
 ------------------------------------------------------------------------------
    2 Ni               |   1 Ni               |     4.64277  |     2.45685
    3 Ni               |   1 Ni               |     4.64274  |     2.45683
    3 Ni               |   2 Ni               |     4.64266  |     2.45679
    4 Ni               |   1 Ni               |     4.64272  |     2.45682
    4 Ni               |   2 Ni               |     4.64276  |     2.45684
    4 Ni               |   3 Ni               |     4.64276  |     2.45685
 ------------------------------------------------------------------------------
                         number of included internuclear distances:          6
 ==============================================================================



 ==============================================================================
                                 internuclear angles
 ------------------------------------------------------------------------------
        center 1       |       center 2       |       center 3       |  degrees
 ------------------------------------------------------------------------------
    1 Ni               |   3 Ni               |   2 Ni               |    60.00
    1 Ni               |   4 Ni               |   2 Ni               |    60.00
    3 Ni               |   1 Ni               |   4 Ni               |    60.00
    2 Ni               |   3 Ni               |   1 Ni               |    60.00
    2 Ni               |   4 Ni               |   1 Ni               |    60.00
    3 Ni               |   2 Ni               |   4 Ni               |    60.00
    1 Ni               |   3 Ni               |   2 Ni               |    60.00
    3 Ni               |   1 Ni               |   4 Ni               |    60.00
    3 Ni               |   2 Ni               |   4 Ni               |    60.00
    1 Ni               |   4 Ni               |   2 Ni               |    60.00
    4 Ni               |   1 Ni               |   3 Ni               |    60.00
    4 Ni               |   2 Ni               |   3 Ni               |    60.00
 ------------------------------------------------------------------------------
                            number of included internuclear angles:         12
 ==============================================================================




 Task  times  cpu:     3673.7s     wall:     4020.7s
 
 
                                NWChem Input Module
                                -------------------
 
 
 Summary of allocated global arrays
-----------------------------------
  No active global arrays



                         GA Statistics for process    0
                         ------------------------------

       create   destroy   get      put      acc     scatter   gather  read&inc
calls:    0        0        0        0        0        0        0        0     
number of processes/call 0.00e+00 0.00e+00 0.00e+00 0.00e+00 0.00e+00
bytes total:             0.00e+00 0.00e+00 0.00e+00 0.00e+00 0.00e+00 0.00e+00
bytes remote:            0.00e+00 0.00e+00 0.00e+00 0.00e+00 0.00e+00 0.00e+00
Max memory consumed for GA by this process: 0 bytes
 



                                  ACKNOWLEDGEMENT
                                  ---------------

            Please use the following acknowledgement where appropriate 
            for results obtained with NWChem:

            High Performance Computational Chemistry Group, "NWChem, A
            Computational Chemistry Package for Parallel Computers, 
            Version 5.1.1" (2008), Pacific Northwest National Laboratory,
            Richland, Washington 99352-0999, USA.


                                     CITATION
                                     --------

          Please use the following citation when publishing results
          obtained with NWChem:

          E. J. Bylaska, W. A. de Jong, N. Govind, K. Kowalski, T. P. Straatsma,
          M. Valiev, H. J. J. Van Dam, D. Wang, E. Apra, T. L. Windus, J. Hammond,
          J. Autschbach, P. Nichols, S. Hirata, M. T. Hackler, Y. Zhao, P.-D. Fan,
          R. J. Harrison, M. Dupuis, D. M. A. Smith, J. Nieplocha, V. Tipparaju,
          M. Krishnan, A. Vazquez-Mayagoitia, L. Jensen, M. Swart, Q. Wu,
          T. Van Voorhis, A. A. Auer, M. Nooijen, L. D. Crosby, E. Brown, 
          G. Cisneros, G. I. Fann, H. Fruchtl, J. Garza, K. Hirao,
          R. Kendall, J. A. Nichols, K. Tsemekhman, K. Wolinski, J. Anchell, 
          D. Bernholdt, P. Borowski, T. Clark, D. Clerc, H. Dachsel, M. Deegan, 
          K. Dyall, D. Elwood, E. Glendening, M. Gutowski, A. Hess, J. Jaffe, 
          B. Johnson, J. Ju, R. Kobayashi, R. Kutteh, Z. Lin, R. Littlefield, 
          X. Long, B. Meng, T. Nakajima, S. Niu, L. Pollack, M. Rosing, 
          G. Sandrone, M. Stave, H. Taylor, G. Thomas, J. van Lenthe, 
          A. Wong, and Z. Zhang,
          "NWChem, A Computational Chemistry Package for Parallel Computers, 
          Version 5.1.1" (2008),
                      Pacific Northwest National Laboratory,
                      Richland, Washington 99352-0999, USA.



 Total times  cpu:     5457.0s     wall:     5981.7s
MA_summarize_allocated_blocks: starting scan ...
MA_summarize_allocated_blocks: scan completed: 0 heap blocks, 0 stack blocks
MA usage statistics:

	allocation statistics:
					      heap	     stack
					      ----	     -----
	current number of blocks	         0	         0
	maximum number of blocks	       524	        16
	current total bytes		         0	         0
	maximum total bytes		 680855032	  54216408
	maximum total K-bytes		    680856	     54217
	maximum total M-bytes		       681	        55
