 argument  1 = s2-example4.nw
 argument  2 = -np
 argument  3 = 6
 


============================== echo of input deck ==============================
echo
title "AIMD simulation of s2-dimer"
scratch_dir   ./scratch
permanent_dir ./perm
start s2-md
geometry
S 0.0 0.0 0.0
S 0.0 0.0 1.95
end
nwpw
  simulation_cell
    SC 20.0
  end
  cutoff 15.0

  mult 3
  xc lda
  lmbfgs
end

nwpw
   car-parrinello
      time_step 5.0
      fake_mass 600.0
      loop 1 1000
      xyz_filename s2-md.xyz
   end
end
task pspw energy
task pspw car-parrinello
================================================================================


                                         
                                         
 
 
             Northwest Computational Chemistry Package (NWChem) 5.1.1
             --------------------------------------------------------
 
 
                    Environmental Molecular Sciences Laboratory
                       Pacific Northwest National Laboratory
                                Richland, WA 99352
 
                                         
                                         
 
 
                  COPYRIGHT (C) 1994, 1995, 1996, 1997, 1998, 1999,
                2000, 2001, 2002, 2003, 2004, 2005, 2006, 2007, 2008,
                                     2009, 2010
                        Pacific Northwest National Laboratory,
                             Battelle Memorial Institute.
 
                            >>> All Rights Reserved <<<
 
 
                                    DISCLAIMER
                                    ----------

            This material was prepared as an account of work sponsored
            by an agency of the United States Government.  Neither the
            United States Government nor the United States Department
            of Energy, nor Battelle, nor any of their employees, MAKES
            ANY WARRANTY, EXPRESS OR IMPLIED, OR ASSUMES ANY LEGAL
            LIABILITY OR RESPONSIBILITY FOR THE ACCURACY, COMPLETENESS,
            OR USEFULNESS OF ANY INFORMATION, APPARATUS, PRODUCT,
            SOFTWARE, OR PROCESS DISCLOSED, OR REPRESENTS THAT ITS USE
            WOULD NOT INFRINGE PRIVATELY OWNED RIGHTS.


                                    LIMITED USE
                                    -----------

            This software (including any documentation) is being made
            available to you for your internal use only, solely for use
            in performance of work directly for the U.S. Federal
            Government or work under contracts with the U.S. Department
            of Energy or other U.S. Federal Government agencies.  This
            software is a version which has not yet been evaluated and
            cleared for commercialization.  Adherence to this notice
            may be necessary for the author, Battelle Memorial
            Institute, to successfully assert copyright in and
            commercialize this software. This software is not intended
            for duplication or distribution to third parties without
            the permission of the Manager of Software Products at
            Pacific Northwest National Laboratory, Richland,
            Washington, 99352.


                                  ACKNOWLEDGMENT
                                  --------------

            This software and its documentation were produced with
            Government support under Contract Number DE-AC05-76RL01830
            awarded by the United States Department of Energy.  The
            Government retains a paid-up non-exclusive, irrevocable
            worldwide license to reproduce, prepare derivative works,
            perform publicly and display publicly by or for the
            Government, including the right to distribute to other
            Government contractors.


           Job information
           ---------------

    hostname      = seattle-1
    program       = nwchem
    date          = Mon Aug  9 16:48:47 2010

    compiled      = Wed_Jul_21_12:26:22_2010
    source        = /home/bylaska/nwchem-releases/nwchem
    nwchem branch = Development
    input         = s2-example4.nw
    prefix        = s2-md.
    data base     = ./perm/s2-md.db
    status        = startup
    nproc         =        6
    time left     =     -1s



           Memory information
           ------------------

    heap      =   13107201 doubles =    100.0 Mbytes
    stack     =   13107201 doubles =    100.0 Mbytes
    global    =   26214400 doubles =    200.0 Mbytes (distinct from heap & stack)
    total     =   52428802 doubles =    400.0 Mbytes
    verify    = yes
    hardfail  = no 


           Directory information
           ---------------------
 
  0 permanent = ./perm
  0 scratch   = ./scratch
 
 
 
 
                                NWChem Input Module
                                -------------------
 
 
                            AIMD simulation of s2-dimer
                            ---------------------------

 Scaling coordinates for geometry "geometry" by  1.889725989
 (inverse scale =  0.529177249)

 ORDER OF PRIMARY AXIS IS BEING SET TO 4
 D4H symmetry detected

          ------
          auto-z
          ------
 
 
                             Geometry "geometry" -> ""
                             -------------------------
 
 Output coordinates in angstroms (scale by  1.889725989 to convert to a.u.)
 
  No.       Tag          Charge          X              Y              Z
 ---- ---------------- ---------- -------------- -------------- --------------
    1 S                   16.0000     0.00000000     0.00000000    -0.97500000
    2 S                   16.0000     0.00000000     0.00000000     0.97500000
 
      Atomic Mass 
      ----------- 
 
      S                 31.972070
 

 Effective nuclear repulsion energy (a.u.)      69.4714747405

            Nuclear Dipole moment (a.u.) 
            ----------------------------
        X                 Y               Z
 ---------------- ---------------- ----------------
     0.0000000000     0.0000000000     0.0000000000
 
      Symmetry information
      --------------------
 
 Group name             D4h       
 Group number             28
 Group order              16
 No. of unique centers     1
 
      Symmetry unique atoms
 
     1
 


                                Z-matrix (autoz)
                                -------- 

 Units are Angstrom for bonds and degrees for angles
 
      Type          Name      I     J     K     L     M      Value
      ----------- --------  ----- ----- ----- ----- ----- ----------
    1 Stretch                  1     2                       1.95000
 
 
            XYZ format geometry
            -------------------
     2
 geometry
 S                     0.00000000     0.00000000    -0.97500000
 S                     0.00000000     0.00000000     0.97500000
 
 ==============================================================================
                                internuclear distances
 ------------------------------------------------------------------------------
       center one      |      center two      | atomic units |  angstroms
 ------------------------------------------------------------------------------
    2 S                |   1 S                |     3.68497  |     1.95000
 ------------------------------------------------------------------------------
                         number of included internuclear distances:          1
 ==============================================================================



          ****************************************************
          *                                                  *
          *               NWPW PSPW Calculation              *
          *                                                  *
          *  [ (Grassman/Stiefel manifold implementation) ]  *
          *                                                  *
          *      [ NorthWest Chemistry implementation ]      *
          *                                                  *
          *            version #5.10   06/12/02              *
          *                                                  *
          *    This code was developed by Eric J. Bylaska,   *
          *    and was based upon algorithms and code        *
          *    developed by the group of Prof. John H. Weare *
          *                                                  *
          ****************************************************
     >>>  JOB STARTED       AT Mon Aug  9 16:48:47 2010  <<<
          ================ input data ========================
  library name resolved from: compiled reference
  NWCHEM_NWPW_LIBRARY set to: <
 /home/bylaska/nwchem-releases/nwchem/src/nwpw/libraryps/>
 Generating 1d pseudopotential for S   
 
 Generated formatted_filename: ./perm/S.vpp
 random planewave guess, initial psi:
 s2-md.movecs                                      
 -   spin, nalpha, nbeta:                     2                     7
                     5

 input psi filename:./perm/s2-md.movecs
 Warning - Gram-Schmidt being performed on psi:   12.0000000000000     
   7.95390810283378        12.0000000000000        4.04609189716622     

 number of processors used:         6
 processor grid           :   6 x   1
 parallel mapping         :   hilbert
 parallel mapping         :  balanced

 options:
      boundary conditions  = periodic    (version3)
      electron spin        = unrestricted
      exchange-correlation = LDA (Vosko et al) parameterization

 elements involved in the cluster:
      1: S     core charge:  6.0000  lmax=  2
             comment    : Hamann pseudopotential
             pseudpotential type            :   0
             highest angular component      :   2
             local potential used           :   2
             number of non-local projections:   4
             cutoff =   0.843   0.955   0.955
 

 total charge:   0.000

 atomic composition:
     S   :  2

 number of electrons: spin up=     7 (   7 per task)  down=     5 (   5 per task) (fourier space)
 number of orbitals : spin up=     7 (   7 per task)  down=     5 (   5 per task) (fourier space)

 supercell:
      cell_name:  cell_default                                      
      lattice:    a1=<  20.000   0.000   0.000 >
                  a2=<   0.000  20.000   0.000 >
                  a3=<   0.000   0.000  20.000 >
      reciprocal: b1=<   0.314   0.000   0.000 >
                  b2=<   0.000   0.314   0.000 >
                  b3=<   0.000   0.000   0.314 >
      lattice:    a=      20.000 b=     20.000 c=      20.000
                  alpha=  90.000 beta=  90.000 gamma=  90.000
                  omega=      8000.0

      density cutoff= 30.000  fft= 50x 50x 50(    31335 waves     5222 per task)
      wavefnc cutoff= 15.000  fft= 50x 50x 50(    11060 waves     1843 per task)
      ewald summation: cut radius=    6.37  and  1
                        madelung= 1.76011888

 technical parameters:
      time step=      5.80     ficticious mass=  400000.0
      tolerance=.100E-06 (energy)   0.100E-06 (density)
      maximum iterations =    1000 (   10 inner  100 outer )





== Energy Calculation ==


          ============ Grassmann lmbfgs iteration ============
     >>>  ITERATION STARTED AT Mon Aug  9 16:48:49 2010  <<<
    iter.           Energy         DeltaE       DeltaRho 
    ------------------------------------------------------
     -  15 steepest descent iterations performed
      10   -0.1993134867E+02   -0.22934E+00    0.10437E+01
     -  10 steepest descent iterations performed
      20   -0.2028238962E+02   -0.31716E-02    0.51553E-02
      30   -0.2034037491E+02   -0.12827E-01    0.98166E-02
     -  10 steepest descent iterations performed
      40   -0.2040952281E+02   -0.86197E-03    0.59873E-03
      50   -0.2041178393E+02   -0.50792E-04    0.77800E-04
      60   -0.2041189515E+02   -0.85957E-06    0.26750E-05
      70   -0.2041189672E+02   -0.75520E-07    0.18532E-07
  *** tolerance ok. iteration terminated
     >>>  ITERATION ENDED   AT Mon Aug  9 16:49:04 2010  <<<


==  Summary Of Results  ==
 
 number of electrons: spin up=    7.00000  down=    5.00000 (real space)

 total     energy    :  -0.2041189672E+02 (   -0.10206E+02/ion)
 total orbital energy:  -0.4907546453E+01 (   -0.40896E+00/electron)
 hartree   energy    :   0.1651320391E+02 (    0.13761E+01/electron)
 exc-corr  energy    :  -0.4294211808E+01 (   -0.35785E+00/electron)
 ion-ion   energy    :  -0.3103701257E+00 (   -0.15519E+00/ion)

 kinetic (planewave) :   0.7453123441E+01 (    0.62109E+00/electron)
 V_local (planewave) :  -0.4438319979E+02 (   -0.36986E+01/electron)
 V_nl    (planewave) :   0.4609557651E+01 (    0.38413E+00/electron)
 V_Coul  (planewave) :   0.3302640782E+02 (    0.27522E+01/electron)
 V_xc.   (planewave) :  -0.5613435576E+01 (   -0.46779E+00/electron)
 Virial Coefficient  :  -0.1658455008E+01

 orbital energies:
    -0.2060464E+00 (  -5.607eV)
    -0.2060468E+00 (  -5.607eV)
    -0.3223469E+00 (  -8.772eV)    -0.2915946E+00 (  -7.935eV)
    -0.3223475E+00 (  -8.772eV)    -0.2915951E+00 (  -7.935eV)
    -0.3562787E+00 (  -9.695eV)    -0.3341330E+00 (  -9.092eV)
    -0.5699889E+00 ( -15.510eV)    -0.5316549E+00 ( -14.467eV)
    -0.7497389E+00 ( -20.402eV)    -0.7257747E+00 ( -19.749eV)

 Total PSPW energy   :  -0.2041189672E+02


=== Spin Contamination ===
 
 <Sexact^2> =    2.00000000000000     
 <S^2>      =    2.00304460940714     
 


== Center of Charge ==

spin up     (    0.0000,    0.0000,   -0.0001 )
spin down   (    0.0000,    0.0000,    0.0001 )
     total  (    0.0000,    0.0000,    0.0000 )
ionic       (    0.0000,    0.0000,    0.0000 )
crystal     (    0.0000,    0.0000,    0.0000 )


== Crystal Dipole ==

mu   =  (    0.0002,   -0.0002,    0.0000 ) au
|mu| =     0.0003 au,       0.0007 Debye


== Molecular Dipole wrt Center of Mass ==

mu   =  (    0.0002,   -0.0002,    0.0000 ) au
|mu| =     0.0003 au,       0.0007 Debye

 output psi filename:./perm/s2-md.movecs


== Timing ==

cputime in seconds
  prologue    :   0.223631E+01
  main loop   :   0.147226E+02
  epilogue    :   0.214901E+00
  total       :   0.171739E+02
  cputime/step:   0.808937E-01       (     182 evalulations,      66 linesearches)


Time spent doing                        total          step
  FFTs                       :   0.100975E+01  0.554809E-02
  dot products               :   0.270072E+01  0.148391E-01
  geodesic                   :   0.118630E+01  0.651813E-02
  ffm_dgemm                  :   0.309748E+00  0.170191E-02
  fmf_dgemm                  :   0.505867E+00  0.277949E-02
  m_diagonalize              :   0.365133E-02  0.200623E-04
    - m_tredq                :   0.000000E+00  0.000000E+00
    - m_getdiags             :   0.000000E+00  0.000000E+00
    - m_tqliq                :   0.000000E+00  0.000000E+00
    - m_eigsrt               :   0.000000E+00  0.000000E+00
  exchange correlation       :   0.110892E+01  0.609297E-02
  local pseudopotentials     :   0.215054E-03  0.118161E-05
  non-local pseudopotentials :   0.183716E+01  0.100943E-01
  hartree potentials         :   0.369341E-01  0.202935E-03
  ion-ion interaction        :   0.849414E-02  0.466711E-04
  structure factors          :   0.665402E-02  0.365606E-04
  phase factors              :   0.109673E-04  0.602596E-07
  masking and packing        :   0.132807E+01  0.729708E-02
  queue fft                  :   0.797672E+01  0.438281E-01
  queue fft (serial)         :   0.209293E+01  0.114996E-01
  queue fft (message passing):   0.579604E+01  0.318463E-01
  HFX potential              :   0.000000E+00  0.000000E+00
  qmmm LJ                    :   0.000000E+00  0.000000E+00
  qmmm residual Q            :   0.000000E+00  0.000000E+00
 
     >>>  JOB COMPLETED     AT Mon Aug  9 16:49:04 2010  <<<

 Task  times  cpu:        8.1s     wall:       17.2s
 
 
                                NWChem Input Module
                                -------------------
 
 
 >>>> PSPW Parallel Module - Car-Parrinello <<<<
          ****************************************************
          *                                                  *
          *     Car-Parrinello microcluster calculation      *
          *                                                  *
          *      [   extended Lagrangian molecular   ]       *
          *      [        dynamics simulation        ]       *
          *                                                  *
          *      [ NorthWest Chemistry implementation ]      *
          *                                                  *
          *            version #5.00   06/01/99              *
          *                                                  *
          *    This code was developed by Eric J. Bylaska,   *
          *    and was based upon algorithms and code        *
          *    developed by the group of Prof. John H. Weare *
          *                                                  *
          ****************************************************
     >>>  JOB STARTED       AT Mon Aug  9 16:49:04 2010  <<<
          ================ input data ========================

 input psi filename:./perm/s2-md.movecs
 Generated initial wavefunctions velocities:
 s2-md.vmovecs                                     

 input vpsi filename:./perm/s2-md.vmovecs

 number of processors used:         6
 processor grid           :   6 x   1
 parallel mapping         : hilbert
 parallel mapping         : balanced

 options:
      boundary conditions  = periodic    (version3)
      electron spin        = unrestricted
      exchange-correlation = LDA (Vosko et al) parameterization

 elements involved in the cluster:
      1: S     core charge: 6.0  lmax=2
             highest angular component      :  2
             local potential used           :  2
             number of non-local projections:  4
             cutoff =   0.843   0.955   0.955

 total charge=   0.000

 atomic composition:
     S   :  2

 initial position of ions:
        1 S    (    0.00000    0.00000   -1.84248 ) - atomic mass=  31.972 
        2 S    (    0.00000    0.00000    1.84248 ) - atomic mass=  31.972 
        G.C.   (    0.00000    0.00000    0.00000 )
        C.O.M. (    0.00000    0.00000    0.00000 )

 initial velocity of ions:
        1 S    (    0.00000    0.00000    0.00000 )
        2 S    (    0.00000    0.00000    0.00000 )
        G.C.   (    0.00000    0.00000    0.00000 )
        C.O.M. (    0.00000    0.00000    0.00000 )

 number of electrons: spin up=     7 (   7 per task)  down=     5 (   5 per task) (fourier space)
 number of orbitals : spin up=     7 (   7 per task)  down=     5 (   5 per task) (fourier space)

 supercell:
      lattice:    a1=<  20.000   0.000   0.000 >
                  a2=<   0.000  20.000   0.000 >
                  a3=<   0.000   0.000  20.000 >
      reciprocal: b1=<   0.314   0.000   0.000 >
                  b2=<   0.000   0.314   0.000 >
                  b3=<   0.000   0.000   0.314 >
      volume :       8000.0
      density cutoff= 30.000  fft= 50x 50x 50(    31335 waves     5222 per task)
      wavefnc cutoff= 15.000  fft= 50x 50x 50(    11060 waves     1843 per task)
      ewald summation: cut radius=    6.37  and  1
                        madelung= 1.76011888

 technical parameters:
      translation contrained
      time step=      5.00     ficticious mass=     600.0
      cooling/heatting rates:  0.10000E+01 (psi)   0.10000E+01 (ion)
      maximum iterations =    1000 (    1 inner 1000 outer )
      initial kinetic energy:  0.00000E+00 (psi)   0.00000E+00 (ion)
                                                   0.00000E+00 (c.o.m.)
      after scaling:           0.00000E+00 (psi)   0.00000E+00 (ion)
      increased energy:        0.00000E+00 (psi)   0.00000E+00 (ion)

 Constant Energy Simulation                     



          ============ Car-Parrinello iteration ==============
     >>>  ITERATION STARTED AT Mon Aug  9 16:49:05 2010  <<<
    iter.         KE+Energy             Energy        KE_psi        KE_ion   Temperature
    ------------------------------------------------------------------------------------
       1  -0.2041189672E+02  -0.2041189711E+02   0.99213E-08   0.38229E-06          0.12
       2  -0.2041189672E+02  -0.2041189828E+02   0.29482E-07   0.15244E-05          0.40
       3  -0.2041189672E+02  -0.2041190018E+02   0.46156E-07   0.34130E-05          0.84
       4  -0.2041189672E+02  -0.2041190282E+02   0.67257E-07   0.60281E-05          1.43
       5  -0.2041189673E+02  -0.2041190618E+02   0.11049E-06   0.93460E-05          2.18
       6  -0.2041189673E+02  -0.2041191026E+02   0.18680E-06   0.13343E-04          3.07
       7  -0.2041189673E+02  -0.2041191503E+02   0.30647E-06   0.17997E-04          4.11
       8  -0.2041189673E+02  -0.2041192050E+02   0.48839E-06   0.23291E-04          5.29
       9  -0.2041189673E+02  -0.2041192669E+02   0.74931E-06   0.29213E-04          6.60
      10  -0.2041189673E+02  -0.2041193357E+02   0.10931E-05   0.35756E-04          8.05
      11  -0.2041189673E+02  -0.2041194116E+02   0.15191E-05   0.42919E-04          9.64
      12  -0.2041189673E+02  -0.2041194946E+02   0.20282E-05   0.50704E-04         11.36
      13  -0.2041189673E+02  -0.2041195846E+02   0.26146E-05   0.59117E-04         13.22
      14  -0.2041189673E+02  -0.2041196815E+02   0.32606E-05   0.68164E-04         15.21
      15  -0.2041189673E+02  -0.2041197853E+02   0.39480E-05   0.77853E-04         17.33
      16  -0.2041189673E+02  -0.2041198958E+02   0.46631E-05   0.88192E-04         19.59
      17  -0.2041189673E+02  -0.2041200131E+02   0.53898E-05   0.99187E-04         21.98
      18  -0.2041189673E+02  -0.2041201368E+02   0.61081E-05   0.11084E-03         24.51
      19  -0.2041189673E+02  -0.2041202669E+02   0.68035E-05   0.12316E-03         27.17
      20  -0.2041189673E+02  -0.2041204033E+02   0.74688E-05   0.13613E-03         29.97
      21  -0.2041189673E+02  -0.2041205459E+02   0.80987E-05   0.14976E-03         32.91
      22  -0.2041189673E+02  -0.2041206946E+02   0.86909E-05   0.16404E-03         35.98
      23  -0.2041189673E+02  -0.2041208493E+02   0.92513E-05   0.17895E-03         39.19
      24  -0.2041189673E+02  -0.2041210100E+02   0.97900E-05   0.19448E-03         42.54
      25  -0.2041189673E+02  -0.2041211765E+02   0.10315E-04   0.21060E-03         46.02
      26  -0.2041189673E+02  -0.2041213487E+02   0.10838E-04   0.22730E-03         49.63
      27  -0.2041189674E+02  -0.2041215265E+02   0.11372E-04   0.24454E-03         53.37
      28  -0.2041189674E+02  -0.2041217098E+02   0.11932E-04   0.26231E-03         57.24
      29  -0.2041189674E+02  -0.2041218983E+02   0.12526E-04   0.28057E-03         61.24
      30  -0.2041189674E+02  -0.2041220919E+02   0.13162E-04   0.29929E-03         65.36
      31  -0.2041189674E+02  -0.2041222904E+02   0.13853E-04   0.31844E-03         69.61
      32  -0.2041189674E+02  -0.2041224936E+02   0.14607E-04   0.33801E-03         73.97
      33  -0.2041189674E+02  -0.2041227014E+02   0.15430E-04   0.35796E-03         78.44
      34  -0.2041189674E+02  -0.2041229135E+02   0.16324E-04   0.37828E-03         83.02
      35  -0.2041189674E+02  -0.2041231299E+02   0.17295E-04   0.39895E-03         87.72
      36  -0.2041189675E+02  -0.2041233504E+02   0.18341E-04   0.41995E-03         92.51
      37  -0.2041189675E+02  -0.2041235748E+02   0.19454E-04   0.44128E-03         97.41
      38  -0.2041189675E+02  -0.2041238029E+02   0.20626E-04   0.46292E-03        102.41
      39  -0.2041189675E+02  -0.2041240347E+02   0.21843E-04   0.48488E-03        107.51
      40  -0.2041189675E+02  -0.2041242700E+02   0.23087E-04   0.50716E-03        112.70
      41  -0.2041189675E+02  -0.2041245084E+02   0.24335E-04   0.52975E-03        117.98
      42  -0.2041189675E+02  -0.2041247498E+02   0.25564E-04   0.55266E-03        123.35
      43  -0.2041189675E+02  -0.2041249939E+02   0.26756E-04   0.57588E-03        128.82
      44  -0.2041189676E+02  -0.2041252407E+02   0.27893E-04   0.59942E-03        134.37
      45  -0.2041189676E+02  -0.2041254897E+02   0.28960E-04   0.62326E-03        140.00
      46  -0.2041189676E+02  -0.2041257410E+02   0.29952E-04   0.64739E-03        145.72
      47  -0.2041189676E+02  -0.2041259942E+02   0.30869E-04   0.67179E-03        151.53
      48  -0.2041189676E+02  -0.2041262491E+02   0.31713E-04   0.69644E-03        157.41
      49  -0.2041189676E+02  -0.2041265055E+02   0.32495E-04   0.72130E-03        163.37
      50  -0.2041189676E+02  -0.2041267633E+02   0.33235E-04   0.74633E-03        169.41
      51  -0.2041189676E+02  -0.2041270222E+02   0.33954E-04   0.77150E-03        175.52
      52  -0.2041189677E+02  -0.2041272820E+02   0.34674E-04   0.79676E-03        181.71
      53  -0.2041189677E+02  -0.2041275424E+02   0.35417E-04   0.82205E-03        187.95
      54  -0.2041189677E+02  -0.2041278032E+02   0.36207E-04   0.84734E-03        194.27
      55  -0.2041189677E+02  -0.2041280641E+02   0.37061E-04   0.87258E-03        200.64
      56  -0.2041189677E+02  -0.2041283249E+02   0.37996E-04   0.89773E-03        207.07
      57  -0.2041189677E+02  -0.2041285855E+02   0.39023E-04   0.92275E-03        213.54
      58  -0.2041189678E+02  -0.2041288454E+02   0.40150E-04   0.94762E-03        220.07
      59  -0.2041189678E+02  -0.2041291046E+02   0.41372E-04   0.97231E-03        226.63
      60  -0.2041189678E+02  -0.2041293628E+02   0.42680E-04   0.99682E-03        233.24
      61  -0.2041189678E+02  -0.2041296197E+02   0.44066E-04   0.10211E-02        239.88
      62  -0.2041189678E+02  -0.2041298752E+02   0.45513E-04   0.10452E-02        246.55
      63  -0.2041189678E+02  -0.2041301291E+02   0.46998E-04   0.10691E-02        253.25
      64  -0.2041189678E+02  -0.2041303810E+02   0.48494E-04   0.10928E-02        259.97
      65  -0.2041189679E+02  -0.2041306308E+02   0.49980E-04   0.11163E-02        266.71
      66  -0.2041189679E+02  -0.2041308782E+02   0.51435E-04   0.11396E-02        273.47
      67  -0.2041189679E+02  -0.2041311231E+02   0.52836E-04   0.11627E-02        280.25
      68  -0.2041189679E+02  -0.2041313651E+02   0.54166E-04   0.11856E-02        287.04
      69  -0.2041189679E+02  -0.2041316040E+02   0.55412E-04   0.12082E-02        293.84
      70  -0.2041189679E+02  -0.2041318397E+02   0.56566E-04   0.12306E-02        300.65
      71  -0.2041189679E+02  -0.2041320717E+02   0.57622E-04   0.12528E-02        307.46
      72  -0.2041189680E+02  -0.2041323000E+02   0.58581E-04   0.12746E-02        314.28
      73  -0.2041189680E+02  -0.2041325242E+02   0.59454E-04   0.12962E-02        321.09
      74  -0.2041189680E+02  -0.2041327443E+02   0.60250E-04   0.13174E-02        327.90
      75  -0.2041189680E+02  -0.2041329599E+02   0.60981E-04   0.13382E-02        334.71
      76  -0.2041189680E+02  -0.2041331709E+02   0.61664E-04   0.13586E-02        341.51
      77  -0.2041189680E+02  -0.2041333770E+02   0.62312E-04   0.13786E-02        348.29
      78  -0.2041189680E+02  -0.2041335780E+02   0.62940E-04   0.13981E-02        355.06
      79  -0.2041189681E+02  -0.2041337737E+02   0.63561E-04   0.14170E-02        361.81
      80  -0.2041189681E+02  -0.2041339639E+02   0.64187E-04   0.14354E-02        368.53
      81  -0.2041189681E+02  -0.2041341484E+02   0.64826E-04   0.14532E-02        375.23
      82  -0.2041189681E+02  -0.2041343270E+02   0.65482E-04   0.14704E-02        381.90
      83  -0.2041189681E+02  -0.2041344995E+02   0.66156E-04   0.14870E-02        388.53
      84  -0.2041189681E+02  -0.2041346657E+02   0.66849E-04   0.15029E-02        395.13
      85  -0.2041189681E+02  -0.2041348254E+02   0.67555E-04   0.15182E-02        401.68
      86  -0.2041189681E+02  -0.2041349784E+02   0.68265E-04   0.15328E-02        408.19
      87  -0.2041189682E+02  -0.2041351245E+02   0.68970E-04   0.15467E-02        414.65
      88  -0.2041189682E+02  -0.2041352637E+02   0.69661E-04   0.15599E-02        421.06
      89  -0.2041189682E+02  -0.2041353957E+02   0.70325E-04   0.15724E-02        427.42
      90  -0.2041189682E+02  -0.2041355203E+02   0.70949E-04   0.15843E-02        433.72
      91  -0.2041189682E+02  -0.2041356374E+02   0.71524E-04   0.15954E-02        439.95
      92  -0.2041189682E+02  -0.2041357470E+02   0.72045E-04   0.16058E-02        446.13
      93  -0.2041189682E+02  -0.2041358488E+02   0.72504E-04   0.16156E-02        452.24
      94  -0.2041189682E+02  -0.2041359427E+02   0.72895E-04   0.16246E-02        458.28
      95  -0.2041189682E+02  -0.2041360286E+02   0.73215E-04   0.16328E-02        464.24
      96  -0.2041189682E+02  -0.2041361064E+02   0.73466E-04   0.16403E-02        470.14
      97  -0.2041189682E+02  -0.2041361759E+02   0.73651E-04   0.16471E-02        475.96
      98  -0.2041189683E+02  -0.2041362369E+02   0.73774E-04   0.16531E-02        481.69
      99  -0.2041189683E+02  -0.2041362895E+02   0.73842E-04   0.16583E-02        487.35
     100  -0.2041189683E+02  -0.2041363335E+02   0.73869E-04   0.16627E-02        492.92
     101  -0.2041189683E+02  -0.2041363688E+02   0.73867E-04   0.16662E-02        498.40
     102  -0.2041189683E+02  -0.2041363954E+02   0.73849E-04   0.16689E-02        503.80
     103  -0.2041189683E+02  -0.2041364132E+02   0.73826E-04   0.16707E-02        509.10
     104  -0.2041189683E+02  -0.2041364222E+02   0.73807E-04   0.16716E-02        514.31
     105  -0.2041189683E+02  -0.2041364224E+02   0.73798E-04   0.16716E-02        519.41
     106  -0.2041189683E+02  -0.2041364136E+02   0.73799E-04   0.16707E-02        524.42
     107  -0.2041189683E+02  -0.2041363959E+02   0.73813E-04   0.16689E-02        529.32
     108  -0.2041189683E+02  -0.2041363691E+02   0.73836E-04   0.16662E-02        534.12
     109  -0.2041189683E+02  -0.2041363334E+02   0.73862E-04   0.16627E-02        538.81
     110  -0.2041189683E+02  -0.2041362887E+02   0.73886E-04   0.16582E-02        543.39
     111  -0.2041189683E+02  -0.2041362350E+02   0.73898E-04   0.16528E-02        547.86
     112  -0.2041189683E+02  -0.2041361723E+02   0.73885E-04   0.16465E-02        552.21
     113  -0.2041189683E+02  -0.2041361007E+02   0.73837E-04   0.16394E-02        556.45
     114  -0.2041189683E+02  -0.2041360201E+02   0.73743E-04   0.16314E-02        560.57
     115  -0.2041189683E+02  -0.2041359306E+02   0.73595E-04   0.16226E-02        564.58
     116  -0.2041189683E+02  -0.2041358323E+02   0.73382E-04   0.16130E-02        568.46
     117  -0.2041189683E+02  -0.2041357253E+02   0.73096E-04   0.16026E-02        572.22
     118  -0.2041189683E+02  -0.2041356096E+02   0.72732E-04   0.15914E-02        575.85
     119  -0.2041189683E+02  -0.2041354853E+02   0.72285E-04   0.15794E-02        579.37
     120  -0.2041189683E+02  -0.2041353525E+02   0.71755E-04   0.15667E-02        582.76
     121  -0.2041189683E+02  -0.2041352114E+02   0.71144E-04   0.15532E-02        586.02
     122  -0.2041189683E+02  -0.2041350620E+02   0.70455E-04   0.15389E-02        589.16
     123  -0.2041189682E+02  -0.2041349045E+02   0.69689E-04   0.15239E-02        592.17
     124  -0.2041189682E+02  -0.2041347389E+02   0.68853E-04   0.15082E-02        595.05
     125  -0.2041189682E+02  -0.2041345655E+02   0.67956E-04   0.14918E-02        597.81
     126  -0.2041189682E+02  -0.2041343844E+02   0.67010E-04   0.14746E-02        600.43
     127  -0.2041189682E+02  -0.2041341958E+02   0.66022E-04   0.14567E-02        602.93
     128  -0.2041189682E+02  -0.2041339999E+02   0.64999E-04   0.14382E-02        605.30
     129  -0.2041189682E+02  -0.2041337967E+02   0.63953E-04   0.14189E-02        607.53
     130  -0.2041189682E+02  -0.2041335866E+02   0.62891E-04   0.13990E-02        609.64
     131  -0.2041189682E+02  -0.2041333698E+02   0.61823E-04   0.13783E-02        611.62
     132  -0.2041189681E+02  -0.2041331464E+02   0.60754E-04   0.13571E-02        613.46
     133  -0.2041189681E+02  -0.2041329167E+02   0.59690E-04   0.13352E-02        615.18
     134  -0.2041189681E+02  -0.2041326810E+02   0.58631E-04   0.13127E-02        616.76
     135  -0.2041189681E+02  -0.2041324393E+02   0.57578E-04   0.12895E-02        618.21
     136  -0.2041189681E+02  -0.2041321921E+02   0.56532E-04   0.12659E-02        619.54
     137  -0.2041189681E+02  -0.2041319395E+02   0.55494E-04   0.12416E-02        620.73
     138  -0.2041189681E+02  -0.2041316818E+02   0.54460E-04   0.12169E-02        621.79
     139  -0.2041189680E+02  -0.2041314192E+02   0.53423E-04   0.11917E-02        622.73
     140  -0.2041189680E+02  -0.2041311521E+02   0.52378E-04   0.11660E-02        623.53
     141  -0.2041189680E+02  -0.2041308808E+02   0.51324E-04   0.11400E-02        624.21
     142  -0.2041189680E+02  -0.2041306056E+02   0.50252E-04   0.11135E-02        624.76
     143  -0.2041189680E+02  -0.2041303267E+02   0.49156E-04   0.10867E-02        625.19
     144  -0.2041189679E+02  -0.2041300445E+02   0.48030E-04   0.10596E-02        625.50
     145  -0.2041189679E+02  -0.2041297593E+02   0.46870E-04   0.10323E-02        625.68
     146  -0.2041189679E+02  -0.2041294713E+02   0.45675E-04   0.10047E-02        625.74
     147  -0.2041189679E+02  -0.2041291810E+02   0.44445E-04   0.97687E-03        625.68
     148  -0.2041189679E+02  -0.2041288886E+02   0.43182E-04   0.94889E-03        625.50
     149  -0.2041189678E+02  -0.2041285945E+02   0.41894E-04   0.92077E-03        625.21
     150  -0.2041189678E+02  -0.2041282990E+02   0.40586E-04   0.89253E-03        624.80
     151  -0.2041189678E+02  -0.2041280025E+02   0.39265E-04   0.86421E-03        624.28
     152  -0.2041189678E+02  -0.2041277054E+02   0.37940E-04   0.83582E-03        623.65
     153  -0.2041189678E+02  -0.2041274079E+02   0.36618E-04   0.80740E-03        622.91
     154  -0.2041189677E+02  -0.2041271105E+02   0.35304E-04   0.77898E-03        622.07
     155  -0.2041189677E+02  -0.2041268136E+02   0.34001E-04   0.75059E-03        621.12
     156  -0.2041189677E+02  -0.2041265174E+02   0.32714E-04   0.72226E-03        620.07
     157  -0.2041189677E+02  -0.2041262223E+02   0.31441E-04   0.69402E-03        618.92
     158  -0.2041189677E+02  -0.2041259287E+02   0.30184E-04   0.66592E-03        617.67
     159  -0.2041189676E+02  -0.2041256369E+02   0.28941E-04   0.63798E-03        616.33
     160  -0.2041189676E+02  -0.2041253472E+02   0.27712E-04   0.61025E-03        614.89
     161  -0.2041189676E+02  -0.2041250600E+02   0.26494E-04   0.58275E-03        613.37
     162  -0.2041189676E+02  -0.2041247757E+02   0.25289E-04   0.55552E-03        611.76
     163  -0.2041189675E+02  -0.2041244945E+02   0.24099E-04   0.52860E-03        610.06
     164  -0.2041189675E+02  -0.2041242169E+02   0.22927E-04   0.50201E-03        608.29
     165  -0.2041189675E+02  -0.2041239432E+02   0.21772E-04   0.47580E-03        606.43
     166  -0.2041189675E+02  -0.2041236737E+02   0.20635E-04   0.44999E-03        604.50
     167  -0.2041189675E+02  -0.2041234087E+02   0.19518E-04   0.42461E-03        602.50
     168  -0.2041189674E+02  -0.2041231487E+02   0.18425E-04   0.39970E-03        600.43
     169  -0.2041189674E+02  -0.2041228939E+02   0.17357E-04   0.37529E-03        598.29
     170  -0.2041189674E+02  -0.2041226446E+02   0.16312E-04   0.35141E-03        596.09
     171  -0.2041189674E+02  -0.2041224013E+02   0.15290E-04   0.32810E-03        593.83
     172  -0.2041189674E+02  -0.2041221641E+02   0.14290E-04   0.30539E-03        591.51
     173  -0.2041189673E+02  -0.2041219335E+02   0.13311E-04   0.28331E-03        589.14
     174  -0.2041189673E+02  -0.2041217097E+02   0.12349E-04   0.26189E-03        586.72
     175  -0.2041189673E+02  -0.2041214929E+02   0.11407E-04   0.24116E-03        584.25
     176  -0.2041189673E+02  -0.2041212836E+02   0.10485E-04   0.22114E-03        581.74
     177  -0.2041189673E+02  -0.2041210818E+02   0.95851E-05   0.20187E-03        579.19
     178  -0.2041189673E+02  -0.2041208880E+02   0.87103E-05   0.18336E-03        576.60
     179  -0.2041189672E+02  -0.2041207023E+02   0.78631E-05   0.16564E-03        573.98
     180  -0.2041189672E+02  -0.2041205249E+02   0.70473E-05   0.14872E-03        571.33
     181  -0.2041189672E+02  -0.2041203562E+02   0.62686E-05   0.13263E-03        568.65
     182  -0.2041189672E+02  -0.2041201963E+02   0.55324E-05   0.11738E-03        565.94
     183  -0.2041189672E+02  -0.2041200454E+02   0.48416E-05   0.10298E-03        563.22
     184  -0.2041189672E+02  -0.2041199038E+02   0.41973E-05   0.89467E-04        560.48
     185  -0.2041189672E+02  -0.2041197716E+02   0.36020E-05   0.76841E-04        557.73
     186  -0.2041189672E+02  -0.2041196490E+02   0.30588E-05   0.65124E-04        554.97
     187  -0.2041189671E+02  -0.2041195361E+02   0.25680E-05   0.54330E-04        552.20
     188  -0.2041189671E+02  -0.2041194332E+02   0.21283E-05   0.44476E-04        549.43
     189  -0.2041189671E+02  -0.2041193403E+02   0.17393E-05   0.35575E-04        546.65
     190  -0.2041189671E+02  -0.2041192575E+02   0.13998E-05   0.27641E-04        543.88
     191  -0.2041189671E+02  -0.2041191851E+02   0.11063E-05   0.20687E-04        541.12
     192  -0.2041189671E+02  -0.2041191229E+02   0.85581E-06   0.14725E-04        538.36
     193  -0.2041189671E+02  -0.2041190712E+02   0.64841E-06   0.97640E-05        535.62
     194  -0.2041189671E+02  -0.2041190301E+02   0.48452E-06   0.58124E-05        532.89
     195  -0.2041189671E+02  -0.2041189995E+02   0.36203E-06   0.28768E-05        530.18
     196  -0.2041189671E+02  -0.2041189795E+02   0.27917E-06   0.96177E-06        527.49
     197  -0.2041189671E+02  -0.2041189702E+02   0.23752E-06   0.70232E-07        524.83
     198  -0.2041189671E+02  -0.2041189715E+02   0.23957E-06   0.20320E-06        522.19
     199  -0.2041189671E+02  -0.2041189836E+02   0.28556E-06   0.13600E-05        519.58
     200  -0.2041189671E+02  -0.2041190062E+02   0.37544E-06   0.35382E-05        517.01
     201  -0.2041189671E+02  -0.2041190396E+02   0.51118E-06   0.67339E-05        514.47
     202  -0.2041189671E+02  -0.2041190835E+02   0.69497E-06   0.10942E-04        511.97
     203  -0.2041189671E+02  -0.2041191379E+02   0.92684E-06   0.16154E-04        509.51
     204  -0.2041189671E+02  -0.2041192028E+02   0.12058E-05   0.22364E-04        507.10
     205  -0.2041189671E+02  -0.2041192780E+02   0.15313E-05   0.29561E-04        504.72
     206  -0.2041189671E+02  -0.2041193635E+02   0.19032E-05   0.37734E-04        502.40
     207  -0.2041189671E+02  -0.2041194591E+02   0.23204E-05   0.46873E-04        500.13
     208  -0.2041189672E+02  -0.2041195646E+02   0.27817E-05   0.56965E-04        497.91
     209  -0.2041189672E+02  -0.2041196800E+02   0.32860E-05   0.67997E-04        495.74
     210  -0.2041189672E+02  -0.2041198050E+02   0.38324E-05   0.79954E-04        493.63
     211  -0.2041189672E+02  -0.2041199396E+02   0.44204E-05   0.92821E-04        491.58
     212  -0.2041189672E+02  -0.2041200835E+02   0.50496E-05   0.10658E-03        489.59
     213  -0.2041189672E+02  -0.2041202366E+02   0.57190E-05   0.12122E-03        487.66
     214  -0.2041189672E+02  -0.2041203987E+02   0.64283E-05   0.13672E-03        485.79
     215  -0.2041189672E+02  -0.2041205696E+02   0.71774E-05   0.15306E-03        483.99
     216  -0.2041189672E+02  -0.2041207491E+02   0.79647E-05   0.17022E-03        482.25
     217  -0.2041189673E+02  -0.2041209368E+02   0.87869E-05   0.18817E-03        480.59
     218  -0.2041189673E+02  -0.2041211327E+02   0.96423E-05   0.20690E-03        478.99
     219  -0.2041189673E+02  -0.2041213364E+02   0.10532E-04   0.22638E-03        477.46
     220  -0.2041189673E+02  -0.2041215477E+02   0.11456E-04   0.24658E-03        476.01
     221  -0.2041189673E+02  -0.2041217662E+02   0.12411E-04   0.26748E-03        474.62
     222  -0.2041189673E+02  -0.2041219918E+02   0.13396E-04   0.28905E-03        473.31
     223  -0.2041189674E+02  -0.2041222242E+02   0.14414E-04   0.31127E-03        472.08
     224  -0.2041189674E+02  -0.2041224629E+02   0.15463E-04   0.33409E-03        470.92
     225  -0.2041189674E+02  -0.2041227079E+02   0.16539E-04   0.35751E-03        469.83
     226  -0.2041189674E+02  -0.2041229586E+02   0.17639E-04   0.38148E-03        468.82
     227  -0.2041189674E+02  -0.2041232148E+02   0.18761E-04   0.40597E-03        467.89
     228  -0.2041189675E+02  -0.2041234762E+02   0.19905E-04   0.43097E-03        467.04
     229  -0.2041189675E+02  -0.2041237424E+02   0.21065E-04   0.45643E-03        466.26
     230  -0.2041189675E+02  -0.2041240131E+02   0.22237E-04   0.48232E-03        465.56
     231  -0.2041189675E+02  -0.2041242879E+02   0.23421E-04   0.50861E-03        464.94
     232  -0.2041189675E+02  -0.2041245665E+02   0.24618E-04   0.53528E-03        464.39
     233  -0.2041189676E+02  -0.2041248486E+02   0.25824E-04   0.56227E-03        463.93
     234  -0.2041189676E+02  -0.2041251337E+02   0.27038E-04   0.58957E-03        463.54
     235  -0.2041189676E+02  -0.2041254216E+02   0.28261E-04   0.61714E-03        463.22
     236  -0.2041189676E+02  -0.2041257119E+02   0.29493E-04   0.64494E-03        462.99
     237  -0.2041189677E+02  -0.2041260043E+02   0.30734E-04   0.67293E-03        462.83
     238  -0.2041189677E+02  -0.2041262984E+02   0.31979E-04   0.70109E-03        462.75
     239  -0.2041189677E+02  -0.2041265939E+02   0.33229E-04   0.72939E-03        462.74
     240  -0.2041189677E+02  -0.2041268903E+02   0.34482E-04   0.75778E-03        462.80
     241  -0.2041189677E+02  -0.2041271874E+02   0.35734E-04   0.78623E-03        462.94
     242  -0.2041189678E+02  -0.2041274848E+02   0.36982E-04   0.81472E-03        463.15
     243  -0.2041189678E+02  -0.2041277821E+02   0.38223E-04   0.84321E-03        463.44
     244  -0.2041189678E+02  -0.2041280790E+02   0.39455E-04   0.87167E-03        463.79
     245  -0.2041189678E+02  -0.2041283752E+02   0.40675E-04   0.90006E-03        464.22
     246  -0.2041189678E+02  -0.2041286702E+02   0.41884E-04   0.92835E-03        464.71
     247  -0.2041189679E+02  -0.2041289638E+02   0.43084E-04   0.95651E-03        465.28
     248  -0.2041189679E+02  -0.2041292556E+02   0.44273E-04   0.98450E-03        465.90
     249  -0.2041189679E+02  -0.2041295453E+02   0.45454E-04   0.10123E-02        466.60
     250  -0.2041189679E+02  -0.2041298326E+02   0.46632E-04   0.10398E-02        467.36
     251  -0.2041189680E+02  -0.2041301171E+02   0.47809E-04   0.10671E-02        468.17
     252  -0.2041189680E+02  -0.2041303985E+02   0.48988E-04   0.10941E-02        469.06
     253  -0.2041189680E+02  -0.2041306764E+02   0.50170E-04   0.11207E-02        470.00
     254  -0.2041189680E+02  -0.2041309507E+02   0.51356E-04   0.11469E-02        470.99
     255  -0.2041189680E+02  -0.2041312209E+02   0.52549E-04   0.11727E-02        472.05
     256  -0.2041189680E+02  -0.2041314868E+02   0.53745E-04   0.11981E-02        473.15
     257  -0.2041189681E+02  -0.2041317481E+02   0.54941E-04   0.12231E-02        474.31
     258  -0.2041189681E+02  -0.2041320046E+02   0.56132E-04   0.12475E-02        475.52
     259  -0.2041189681E+02  -0.2041322558E+02   0.57315E-04   0.12715E-02        476.78
     260  -0.2041189681E+02  -0.2041325017E+02   0.58482E-04   0.12949E-02        478.09
     261  -0.2041189681E+02  -0.2041327419E+02   0.59626E-04   0.13177E-02        479.44
     262  -0.2041189681E+02  -0.2041329762E+02   0.60741E-04   0.13401E-02        480.84
     263  -0.2041189681E+02  -0.2041332043E+02   0.61820E-04   0.13618E-02        482.27
     264  -0.2041189682E+02  -0.2041334261E+02   0.62857E-04   0.13829E-02        483.75
     265  -0.2041189682E+02  -0.2041336413E+02   0.63847E-04   0.14035E-02        485.26
     266  -0.2041189682E+02  -0.2041338497E+02   0.64784E-04   0.14234E-02        486.81
     267  -0.2041189682E+02  -0.2041340511E+02   0.65666E-04   0.14426E-02        488.40
     268  -0.2041189682E+02  -0.2041342453E+02   0.66490E-04   0.14612E-02        490.01
     269  -0.2041189682E+02  -0.2041344320E+02   0.67259E-04   0.14791E-02        491.66
     270  -0.2041189682E+02  -0.2041346112E+02   0.67973E-04   0.14963E-02        493.33
     271  -0.2041189682E+02  -0.2041347826E+02   0.68635E-04   0.15128E-02        495.03
     272  -0.2041189682E+02  -0.2041349461E+02   0.69251E-04   0.15285E-02        496.75
     273  -0.2041189683E+02  -0.2041351016E+02   0.69825E-04   0.15435E-02        498.49
     274  -0.2041189683E+02  -0.2041352488E+02   0.70362E-04   0.15577E-02        500.26
     275  -0.2041189683E+02  -0.2041353878E+02   0.70866E-04   0.15711E-02        502.04
     276  -0.2041189683E+02  -0.2041355183E+02   0.71343E-04   0.15837E-02        503.84
     277  -0.2041189683E+02  -0.2041356404E+02   0.71796E-04   0.15954E-02        505.65
     278  -0.2041189683E+02  -0.2041357537E+02   0.72229E-04   0.16063E-02        507.48
     279  -0.2041189683E+02  -0.2041358584E+02   0.72641E-04   0.16164E-02        509.31
     280  -0.2041189683E+02  -0.2041359544E+02   0.73035E-04   0.16256E-02        511.15
     281  -0.2041189683E+02  -0.2041360415E+02   0.73407E-04   0.16339E-02        513.00
     282  -0.2041189683E+02  -0.2041361197E+02   0.73754E-04   0.16414E-02        514.85
     283  -0.2041189683E+02  -0.2041361890E+02   0.74069E-04   0.16480E-02        516.70
     284  -0.2041189683E+02  -0.2041362494E+02   0.74348E-04   0.16538E-02        518.55
     285  -0.2041189683E+02  -0.2041363008E+02   0.74584E-04   0.16587E-02        520.40
     286  -0.2041189683E+02  -0.2041363433E+02   0.74770E-04   0.16627E-02        522.25
     287  -0.2041189683E+02  -0.2041363767E+02   0.74901E-04   0.16659E-02        524.09
     288  -0.2041189683E+02  -0.2041364012E+02   0.74975E-04   0.16683E-02        525.92
     289  -0.2041189683E+02  -0.2041364166E+02   0.74988E-04   0.16698E-02        527.74
     290  -0.2041189683E+02  -0.2041364232E+02   0.74939E-04   0.16705E-02        529.55
     291  -0.2041189683E+02  -0.2041364208E+02   0.74830E-04   0.16704E-02        531.35
     292  -0.2041189683E+02  -0.2041364095E+02   0.74666E-04   0.16695E-02        533.14
     293  -0.2041189683E+02  -0.2041363894E+02   0.74451E-04   0.16677E-02        534.91
     294  -0.2041189683E+02  -0.2041363605E+02   0.74191E-04   0.16650E-02        536.66
     295  -0.2041189683E+02  -0.2041363229E+02   0.73894E-04   0.16616E-02        538.39
     296  -0.2041189683E+02  -0.2041362767E+02   0.73570E-04   0.16573E-02        540.10
     297  -0.2041189683E+02  -0.2041362219E+02   0.73225E-04   0.16521E-02        541.79
     298  -0.2041189682E+02  -0.2041361587E+02   0.72866E-04   0.16462E-02        543.46
     299  -0.2041189682E+02  -0.2041360871E+02   0.72499E-04   0.16394E-02        545.10
     300  -0.2041189682E+02  -0.2041360073E+02   0.72131E-04   0.16318E-02        546.71
     301  -0.2041189682E+02  -0.2041359194E+02   0.71761E-04   0.16234E-02        548.29
     302  -0.2041189682E+02  -0.2041358234E+02   0.71394E-04   0.16141E-02        549.85
     303  -0.2041189682E+02  -0.2041357196E+02   0.71029E-04   0.16041E-02        551.37
     304  -0.2041189682E+02  -0.2041356081E+02   0.70666E-04   0.15933E-02        552.86
     305  -0.2041189682E+02  -0.2041354890E+02   0.70298E-04   0.15818E-02        554.32
     306  -0.2041189682E+02  -0.2041353624E+02   0.69921E-04   0.15695E-02        555.74
     307  -0.2041189682E+02  -0.2041352286E+02   0.69530E-04   0.15565E-02        557.13
     308  -0.2041189682E+02  -0.2041350877E+02   0.69117E-04   0.15428E-02        558.48
     309  -0.2041189681E+02  -0.2041349398E+02   0.68670E-04   0.15285E-02        559.79
     310  -0.2041189681E+02  -0.2041347850E+02   0.68182E-04   0.15135E-02        561.07
     311  -0.2041189681E+02  -0.2041346236E+02   0.67647E-04   0.14979E-02        562.30
     312  -0.2041189681E+02  -0.2041344558E+02   0.67058E-04   0.14817E-02        563.49
     313  -0.2041189681E+02  -0.2041342817E+02   0.66409E-04   0.14650E-02        564.65
     314  -0.2041189681E+02  -0.2041341016E+02   0.65700E-04   0.14477E-02        565.76
     315  -0.2041189681E+02  -0.2041339156E+02   0.64933E-04   0.14298E-02        566.82
     316  -0.2041189681E+02  -0.2041337240E+02   0.64108E-04   0.14115E-02        567.85
     317  -0.2041189680E+02  -0.2041335269E+02   0.63227E-04   0.13927E-02        568.83
     318  -0.2041189680E+02  -0.2041333246E+02   0.62297E-04   0.13734E-02        569.76
     319  -0.2041189680E+02  -0.2041331172E+02   0.61325E-04   0.13536E-02        570.65
     320  -0.2041189680E+02  -0.2041329050E+02   0.60315E-04   0.13334E-02        571.50
     321  -0.2041189680E+02  -0.2041326882E+02   0.59271E-04   0.13128E-02        572.30
     322  -0.2041189680E+02  -0.2041324670E+02   0.58198E-04   0.12917E-02        573.05
     323  -0.2041189680E+02  -0.2041322417E+02   0.57105E-04   0.12703E-02        573.76
     324  -0.2041189679E+02  -0.2041320124E+02   0.55993E-04   0.12485E-02        574.42
     325  -0.2041189679E+02  -0.2041317794E+02   0.54865E-04   0.12263E-02        575.04
     326  -0.2041189679E+02  -0.2041315429E+02   0.53728E-04   0.12038E-02        575.60
     327  -0.2041189679E+02  -0.2041313032E+02   0.52584E-04   0.11809E-02        576.12
     328  -0.2041189679E+02  -0.2041310605E+02   0.51435E-04   0.11578E-02        576.59
     329  -0.2041189679E+02  -0.2041308150E+02   0.50284E-04   0.11344E-02        577.02
     330  -0.2041189678E+02  -0.2041305670E+02   0.49133E-04   0.11108E-02        577.39
     331  -0.2041189678E+02  -0.2041303166E+02   0.47984E-04   0.10869E-02        577.72
     332  -0.2041189678E+02  -0.2041300642E+02   0.46837E-04   0.10628E-02        578.00
     333  -0.2041189678E+02  -0.2041298099E+02   0.45694E-04   0.10385E-02        578.23
     334  -0.2041189678E+02  -0.2041295540E+02   0.44558E-04   0.10141E-02        578.42
     335  -0.2041189678E+02  -0.2041292966E+02   0.43429E-04   0.98945E-03        578.56
     336  -0.2041189678E+02  -0.2041290380E+02   0.42311E-04   0.96472E-03        578.65
     337  -0.2041189677E+02  -0.2041287785E+02   0.41206E-04   0.93987E-03        578.69
     338  -0.2041189677E+02  -0.2041285183E+02   0.40114E-04   0.91494E-03        578.69
     339  -0.2041189677E+02  -0.2041282576E+02   0.39036E-04   0.88995E-03        578.64
     340  -0.2041189677E+02  -0.2041279967E+02   0.37973E-04   0.86492E-03        578.55
     341  -0.2041189677E+02  -0.2041277358E+02   0.36923E-04   0.83988E-03        578.41
     342  -0.2041189677E+02  -0.2041274751E+02   0.35885E-04   0.81486E-03        578.22
     343  -0.2041189677E+02  -0.2041272149E+02   0.34857E-04   0.78987E-03        577.99
     344  -0.2041189676E+02  -0.2041269554E+02   0.33837E-04   0.76494E-03        577.71
     345  -0.2041189676E+02  -0.2041266968E+02   0.32821E-04   0.74010E-03        577.40
     346  -0.2041189676E+02  -0.2041264394E+02   0.31808E-04   0.71537E-03        577.03
     347  -0.2041189676E+02  -0.2041261833E+02   0.30794E-04   0.69078E-03        576.63
     348  -0.2041189676E+02  -0.2041259288E+02   0.29780E-04   0.66634E-03        576.18
     349  -0.2041189676E+02  -0.2041256761E+02   0.28764E-04   0.64208E-03        575.70
     350  -0.2041189676E+02  -0.2041254253E+02   0.27748E-04   0.61803E-03        575.17
     351  -0.2041189675E+02  -0.2041251768E+02   0.26733E-04   0.59419E-03        574.60
     352  -0.2041189675E+02  -0.2041249307E+02   0.25723E-04   0.57060E-03        573.99
     353  -0.2041189675E+02  -0.2041246873E+02   0.24718E-04   0.54726E-03        573.35
     354  -0.2041189675E+02  -0.2041244468E+02   0.23722E-04   0.52421E-03        572.67
     355  -0.2041189675E+02  -0.2041242093E+02   0.22734E-04   0.50145E-03        571.95
     356  -0.2041189675E+02  -0.2041239751E+02   0.21757E-04   0.47900E-03        571.19
     357  -0.2041189675E+02  -0.2041237443E+02   0.20789E-04   0.45689E-03        570.40
     358  -0.2041189675E+02  -0.2041235171E+02   0.19830E-04   0.43514E-03        569.58
     359  -0.2041189675E+02  -0.2041232937E+02   0.18879E-04   0.41375E-03        568.72
     360  -0.2041189674E+02  -0.2041230742E+02   0.17938E-04   0.39274E-03        567.83
     361  -0.2041189674E+02  -0.2041228589E+02   0.17006E-04   0.37214E-03        566.91
     362  -0.2041189674E+02  -0.2041226478E+02   0.16085E-04   0.35195E-03        565.97
     363  -0.2041189674E+02  -0.2041224411E+02   0.15178E-04   0.33220E-03        564.99
     364  -0.2041189674E+02  -0.2041222391E+02   0.14288E-04   0.31289E-03        563.98
     365  -0.2041189674E+02  -0.2041220420E+02   0.13418E-04   0.29404E-03        562.95
     366  -0.2041189674E+02  -0.2041218497E+02   0.12570E-04   0.27567E-03        561.89
     367  -0.2041189674E+02  -0.2041216627E+02   0.11749E-04   0.25778E-03        560.80
     368  -0.2041189674E+02  -0.2041214809E+02   0.10956E-04   0.24040E-03        559.69
     369  -0.2041189673E+02  -0.2041213045E+02   0.10190E-04   0.22353E-03        558.56
     370  -0.2041189673E+02  -0.2041211337E+02   0.94507E-05   0.20718E-03        557.41
     371  -0.2041189673E+02  -0.2041209685E+02   0.87389E-05   0.19138E-03        556.24
     372  -0.2041189673E+02  -0.2041208092E+02   0.80535E-05   0.17614E-03        555.04
     373  -0.2041189673E+02  -0.2041206558E+02   0.73928E-05   0.16146E-03        553.83
     374  -0.2041189673E+02  -0.2041205084E+02   0.67571E-05   0.14735E-03        552.60
     375  -0.2041189673E+02  -0.2041203672E+02   0.61480E-05   0.13384E-03        551.36
     376  -0.2041189673E+02  -0.2041202323E+02   0.55660E-05   0.12093E-03        550.10
     377  -0.2041189673E+02  -0.2041201037E+02   0.50115E-05   0.10863E-03        548.82
     378  -0.2041189673E+02  -0.2041199817E+02   0.44858E-05   0.96956E-04        547.54
     379  -0.2041189673E+02  -0.2041198663E+02   0.39899E-05   0.85909E-04        546.24
     380  -0.2041189673E+02  -0.2041197575E+02   0.35234E-05   0.75500E-04        544.93
     381  -0.2041189673E+02  -0.2041196555E+02   0.30860E-05   0.65738E-04        543.61
     382  -0.2041189673E+02  -0.2041195603E+02   0.26787E-05   0.56628E-04        542.29
     383  -0.2041189673E+02  -0.2041194721E+02   0.23017E-05   0.48179E-04        540.95
     384  -0.2041189673E+02  -0.2041193908E+02   0.19543E-05   0.40396E-04        539.62
     385  -0.2041189673E+02  -0.2041193165E+02   0.16365E-05   0.33284E-04        538.27
     386  -0.2041189673E+02  -0.2041192492E+02   0.13495E-05   0.26849E-04        536.93
     387  -0.2041189672E+02  -0.2041191891E+02   0.10941E-05   0.21095E-04        535.58
     388  -0.2041189672E+02  -0.2041191362E+02   0.87006E-06   0.16026E-04        534.23
     389  -0.2041189672E+02  -0.2041190905E+02   0.67818E-06   0.11646E-04        532.87
     390  -0.2041189672E+02  -0.2041190520E+02   0.52041E-06   0.79590E-05        531.52
     391  -0.2041189672E+02  -0.2041190209E+02   0.39725E-06   0.49681E-05        530.18
     392  -0.2041189672E+02  -0.2041189971E+02   0.30797E-06   0.26764E-05        528.83
     393  -0.2041189672E+02  -0.2041189806E+02   0.25252E-06   0.10866E-05        527.49
     394  -0.2041189672E+02  -0.2041189716E+02   0.23078E-06   0.20105E-06        526.16
     395  -0.2041189672E+02  -0.2041189699E+02   0.24076E-06   0.21337E-07        524.83
     396  -0.2041189672E+02  -0.2041189755E+02   0.27966E-06   0.54864E-06        523.51
     397  -0.2041189672E+02  -0.2041189885E+02   0.34568E-06   0.17835E-05        522.19
     398  -0.2041189672E+02  -0.2041190089E+02   0.43726E-06   0.37257E-05        520.89
     399  -0.2041189672E+02  -0.2041190365E+02   0.55241E-06   0.63743E-05        519.60
     400  -0.2041189672E+02  -0.2041190714E+02   0.69030E-06   0.97278E-05        518.32
     401  -0.2041189672E+02  -0.2041191136E+02   0.85191E-06   0.13783E-04        517.05
     402  -0.2041189672E+02  -0.2041191630E+02   0.10384E-05   0.18538E-04        515.80
     403  -0.2041189672E+02  -0.2041192196E+02   0.12504E-05   0.23986E-04        514.56
     404  -0.2041189673E+02  -0.2041192834E+02   0.14896E-05   0.30123E-04        513.33
     405  -0.2041189673E+02  -0.2041193543E+02   0.17583E-05   0.36943E-04        512.13
     406  -0.2041189673E+02  -0.2041194322E+02   0.20577E-05   0.44438E-04        510.94
     407  -0.2041189673E+02  -0.2041195171E+02   0.23885E-05   0.52599E-04        509.77
     408  -0.2041189673E+02  -0.2041196090E+02   0.27528E-05   0.61419E-04        508.62
     409  -0.2041189673E+02  -0.2041197077E+02   0.31530E-05   0.70887E-04        507.48
     410  -0.2041189673E+02  -0.2041198131E+02   0.35897E-05   0.80995E-04        506.37
     411  -0.2041189673E+02  -0.2041199253E+02   0.40638E-05   0.91733E-04        505.29
     412  -0.2041189673E+02  -0.2041200440E+02   0.45775E-05   0.10309E-03        504.22
     413  -0.2041189673E+02  -0.2041201692E+02   0.51318E-05   0.11506E-03        503.18
     414  -0.2041189673E+02  -0.2041203009E+02   0.57253E-05   0.12763E-03        502.16
     415  -0.2041189673E+02  -0.2041204389E+02   0.63560E-05   0.14080E-03        501.17
     416  -0.2041189673E+02  -0.2041205831E+02   0.70237E-05   0.15455E-03        500.20
     417  -0.2041189673E+02  -0.2041207335E+02   0.77265E-05   0.16889E-03        499.26
     418  -0.2041189673E+02  -0.2041208899E+02   0.84596E-05   0.18379E-03        498.34
     419  -0.2041189673E+02  -0.2041210521E+02   0.92179E-05   0.19926E-03        497.45
     420  -0.2041189673E+02  -0.2041212202E+02   0.99976E-05   0.21529E-03        496.60
     421  -0.2041189674E+02  -0.2041213939E+02   0.10794E-04   0.23186E-03        495.77
     422  -0.2041189674E+02  -0.2041215731E+02   0.11600E-04   0.24897E-03        494.97
     423  -0.2041189674E+02  -0.2041217576E+02   0.12414E-04   0.26661E-03        494.20
     424  -0.2041189674E+02  -0.2041219473E+02   0.13234E-04   0.28476E-03        493.46
     425  -0.2041189674E+02  -0.2041221421E+02   0.14059E-04   0.30341E-03        492.75
     426  -0.2041189674E+02  -0.2041223417E+02   0.14888E-04   0.32254E-03        492.07
     427  -0.2041189674E+02  -0.2041225461E+02   0.15723E-04   0.34215E-03        491.43
     428  -0.2041189674E+02  -0.2041227551E+02   0.16570E-04   0.36220E-03        490.81
     429  -0.2041189674E+02  -0.2041229685E+02   0.17430E-04   0.38267E-03        490.23
     430  -0.2041189674E+02  -0.2041231861E+02   0.18306E-04   0.40356E-03        489.69
     431  -0.2041189675E+02  -0.2041234078E+02   0.19202E-04   0.42483E-03        489.18
     432  -0.2041189675E+02  -0.2041236333E+02   0.20123E-04   0.44647E-03        488.70
     433  -0.2041189675E+02  -0.2041238626E+02   0.21069E-04   0.46844E-03        488.25
     434  -0.2041189675E+02  -0.2041240954E+02   0.22040E-04   0.49075E-03        487.84
     435  -0.2041189675E+02  -0.2041243315E+02   0.23036E-04   0.51336E-03        487.47
     436  -0.2041189675E+02  -0.2041245707E+02   0.24056E-04   0.53626E-03        487.13
     437  -0.2041189675E+02  -0.2041248128E+02   0.25093E-04   0.55944E-03        486.82
     438  -0.2041189675E+02  -0.2041250576E+02   0.26143E-04   0.58287E-03        486.55
     439  -0.2041189676E+02  -0.2041253050E+02   0.27200E-04   0.60654E-03        486.32
     440  -0.2041189676E+02  -0.2041255546E+02   0.28260E-04   0.63045E-03        486.12
     441  -0.2041189676E+02  -0.2041258063E+02   0.29315E-04   0.65456E-03        485.95
     442  -0.2041189676E+02  -0.2041260599E+02   0.30364E-04   0.67887E-03        485.82
     443  -0.2041189676E+02  -0.2041263152E+02   0.31406E-04   0.70335E-03        485.73
     444  -0.2041189676E+02  -0.2041265719E+02   0.32442E-04   0.72799E-03        485.67
     445  -0.2041189676E+02  -0.2041268299E+02   0.33470E-04   0.75276E-03        485.65
     446  -0.2041189676E+02  -0.2041270889E+02   0.34493E-04   0.77763E-03        485.66
     447  -0.2041189677E+02  -0.2041273488E+02   0.35516E-04   0.80259E-03        485.71
     448  -0.2041189677E+02  -0.2041276092E+02   0.36541E-04   0.82761E-03        485.79
     449  -0.2041189677E+02  -0.2041278699E+02   0.37571E-04   0.85265E-03        485.91
     450  -0.2041189677E+02  -0.2041281307E+02   0.38609E-04   0.87769E-03        486.06
     451  -0.2041189677E+02  -0.2041283915E+02   0.39660E-04   0.90271E-03        486.24
     452  -0.2041189677E+02  -0.2041286518E+02   0.40726E-04   0.92768E-03        486.46
     453  -0.2041189678E+02  -0.2041289116E+02   0.41808E-04   0.95258E-03        486.72
     454  -0.2041189678E+02  -0.2041291706E+02   0.42908E-04   0.97738E-03        487.00
     455  -0.2041189678E+02  -0.2041294285E+02   0.44025E-04   0.10020E-02        487.32
     456  -0.2041189678E+02  -0.2041296852E+02   0.45159E-04   0.10266E-02        487.68
     457  -0.2041189678E+02  -0.2041299404E+02   0.46307E-04   0.10509E-02        488.06
     458  -0.2041189678E+02  -0.2041301938E+02   0.47467E-04   0.10751E-02        488.48
     459  -0.2041189678E+02  -0.2041304453E+02   0.48637E-04   0.10991E-02        488.92
     460  -0.2041189679E+02  -0.2041306946E+02   0.49811E-04   0.11229E-02        489.40
     461  -0.2041189679E+02  -0.2041309414E+02   0.50984E-04   0.11464E-02        489.91
     462  -0.2041189679E+02  -0.2041311856E+02   0.52151E-04   0.11696E-02        490.45
     463  -0.2041189679E+02  -0.2041314268E+02   0.53308E-04   0.11926E-02        491.01
     464  -0.2041189679E+02  -0.2041316649E+02   0.54449E-04   0.12152E-02        491.61
     465  -0.2041189679E+02  -0.2041318996E+02   0.55569E-04   0.12376E-02        492.23
     466  -0.2041189679E+02  -0.2041321307E+02   0.56666E-04   0.12596E-02        492.88
     467  -0.2041189680E+02  -0.2041323580E+02   0.57735E-04   0.12813E-02        493.56
     468  -0.2041189680E+02  -0.2041325812E+02   0.58772E-04   0.13025E-02        494.26
     469  -0.2041189680E+02  -0.2041328001E+02   0.59775E-04   0.13234E-02        494.98
     470  -0.2041189680E+02  -0.2041330146E+02   0.60741E-04   0.13439E-02        495.73
     471  -0.2041189680E+02  -0.2041332243E+02   0.61666E-04   0.13640E-02        496.51
     472  -0.2041189680E+02  -0.2041334292E+02   0.62548E-04   0.13836E-02        497.31
     473  -0.2041189680E+02  -0.2041336289E+02   0.63386E-04   0.14027E-02        498.13
     474  -0.2041189681E+02  -0.2041338233E+02   0.64180E-04   0.14213E-02        498.97
     475  -0.2041189681E+02  -0.2041340121E+02   0.64928E-04   0.14395E-02        499.83
     476  -0.2041189681E+02  -0.2041341951E+02   0.65633E-04   0.14571E-02        500.71
     477  -0.2041189681E+02  -0.2041343721E+02   0.66299E-04   0.14741E-02        501.61
     478  -0.2041189681E+02  -0.2041345430E+02   0.66930E-04   0.14906E-02        502.53
     479  -0.2041189681E+02  -0.2041347076E+02   0.67529E-04   0.15064E-02        503.46
     480  -0.2041189681E+02  -0.2041348655E+02   0.68103E-04   0.15216E-02        504.42
     481  -0.2041189681E+02  -0.2041350168E+02   0.68657E-04   0.15362E-02        505.38
     482  -0.2041189682E+02  -0.2041351611E+02   0.69195E-04   0.15501E-02        506.36
     483  -0.2041189682E+02  -0.2041352984E+02   0.69720E-04   0.15633E-02        507.36
     484  -0.2041189682E+02  -0.2041354285E+02   0.70234E-04   0.15758E-02        508.36
     485  -0.2041189682E+02  -0.2041355513E+02   0.70736E-04   0.15876E-02        509.38
     486  -0.2041189682E+02  -0.2041356665E+02   0.71222E-04   0.15986E-02        510.41
     487  -0.2041189682E+02  -0.2041357741E+02   0.71689E-04   0.16089E-02        511.44
     488  -0.2041189682E+02  -0.2041358738E+02   0.72131E-04   0.16184E-02        512.49
     489  -0.2041189682E+02  -0.2041359657E+02   0.72542E-04   0.16272E-02        513.54
     490  -0.2041189682E+02  -0.2041360494E+02   0.72917E-04   0.16352E-02        514.60
     491  -0.2041189682E+02  -0.2041361249E+02   0.73253E-04   0.16424E-02        515.66
     492  -0.2041189682E+02  -0.2041361922E+02   0.73547E-04   0.16488E-02        516.72
     493  -0.2041189683E+02  -0.2041362511E+02   0.73799E-04   0.16545E-02        517.79
     494  -0.2041189683E+02  -0.2041363014E+02   0.74009E-04   0.16593E-02        518.86
     495  -0.2041189683E+02  -0.2041363432E+02   0.74179E-04   0.16633E-02        519.94
     496  -0.2041189683E+02  -0.2041363763E+02   0.74313E-04   0.16665E-02        521.01
     497  -0.2041189683E+02  -0.2041364007E+02   0.74413E-04   0.16688E-02        522.08
     498  -0.2041189683E+02  -0.2041364163E+02   0.74481E-04   0.16703E-02        523.15
     499  -0.2041189683E+02  -0.2041364230E+02   0.74519E-04   0.16710E-02        524.21
     500  -0.2041189683E+02  -0.2041364209E+02   0.74529E-04   0.16707E-02        525.27
     501  -0.2041189683E+02  -0.2041364098E+02   0.74511E-04   0.16696E-02        526.32
     502  -0.2041189683E+02  -0.2041363897E+02   0.74462E-04   0.16677E-02        527.37
     503  -0.2041189683E+02  -0.2041363606E+02   0.74384E-04   0.16649E-02        528.41
     504  -0.2041189683E+02  -0.2041363226E+02   0.74278E-04   0.16612E-02        529.44
     505  -0.2041189683E+02  -0.2041362756E+02   0.74141E-04   0.16566E-02        530.46
     506  -0.2041189683E+02  -0.2041362195E+02   0.73973E-04   0.16511E-02        531.47
     507  -0.2041189683E+02  -0.2041361545E+02   0.73776E-04   0.16448E-02        532.47
     508  -0.2041189683E+02  -0.2041360806E+02   0.73552E-04   0.16377E-02        533.46
     509  -0.2041189683E+02  -0.2041359977E+02   0.73299E-04   0.16296E-02        534.43
     510  -0.2041189683E+02  -0.2041359060E+02   0.73017E-04   0.16208E-02        535.39
     511  -0.2041189683E+02  -0.2041358056E+02   0.72706E-04   0.16110E-02        536.33
     512  -0.2041189683E+02  -0.2041356964E+02   0.72362E-04   0.16004E-02        537.25
     513  -0.2041189683E+02  -0.2041355786E+02   0.71981E-04   0.15890E-02        538.16
     514  -0.2041189683E+02  -0.2041354521E+02   0.71557E-04   0.15768E-02        539.05
     515  -0.2041189683E+02  -0.2041353173E+02   0.71085E-04   0.15638E-02        539.92
     516  -0.2041189683E+02  -0.2041351741E+02   0.70558E-04   0.15500E-02        540.77
     517  -0.2041189683E+02  -0.2041350226E+02   0.69970E-04   0.15355E-02        541.60
     518  -0.2041189682E+02  -0.2041348630E+02   0.69316E-04   0.15202E-02        542.40
     519  -0.2041189682E+02  -0.2041346954E+02   0.68597E-04   0.15041E-02        543.19
     520  -0.2041189682E+02  -0.2041345201E+02   0.67809E-04   0.14874E-02        543.95
     521  -0.2041189682E+02  -0.2041343370E+02   0.66954E-04   0.14699E-02        544.68
     522  -0.2041189682E+02  -0.2041341465E+02   0.66038E-04   0.14518E-02        545.40
     523  -0.2041189682E+02  -0.2041339487E+02   0.65067E-04   0.14330E-02        546.08
     524  -0.2041189682E+02  -0.2041337437E+02   0.64048E-04   0.14135E-02        546.74
     525  -0.2041189682E+02  -0.2041335318E+02   0.62990E-04   0.13934E-02        547.38
     526  -0.2041189682E+02  -0.2041333132E+02   0.61905E-04   0.13726E-02        547.98
     527  -0.2041189681E+02  -0.2041330881E+02   0.60804E-04   0.13512E-02        548.56
     528  -0.2041189681E+02  -0.2041328567E+02   0.59692E-04   0.13292E-02        549.11
     529  -0.2041189681E+02  -0.2041326193E+02   0.58577E-04   0.13065E-02        549.63
     530  -0.2041189681E+02  -0.2041323762E+02   0.57465E-04   0.12833E-02        550.12
     531  -0.2041189681E+02  -0.2041321275E+02   0.56358E-04   0.12596E-02        550.58
     532  -0.2041189681E+02  -0.2041318735E+02   0.55254E-04   0.12353E-02        551.01
     533  -0.2041189681E+02  -0.2041316145E+02   0.54149E-04   0.12105E-02        551.41
     534  -0.2041189680E+02  -0.2041313507E+02   0.53044E-04   0.11852E-02        551.78
     535  -0.2041189680E+02  -0.2041310825E+02   0.51932E-04   0.11595E-02        552.12
     536  -0.2041189680E+02  -0.2041308102E+02   0.50808E-04   0.11334E-02        552.42
     537  -0.2041189680E+02  -0.2041305339E+02   0.49668E-04   0.11069E-02        552.70
     538  -0.2041189680E+02  -0.2041302541E+02   0.48512E-04   0.10801E-02        552.94
     539  -0.2041189679E+02  -0.2041299711E+02   0.47338E-04   0.10530E-02        553.14
     540  -0.2041189679E+02  -0.2041296851E+02   0.46144E-04   0.10256E-02        553.32
     541  -0.2041189679E+02  -0.2041293965E+02   0.44934E-04   0.99793E-03        553.46
     542  -0.2041189679E+02  -0.2041291057E+02   0.43714E-04   0.97007E-03        553.57
     543  -0.2041189679E+02  -0.2041288129E+02   0.42488E-04   0.94202E-03        553.65
     544  -0.2041189678E+02  -0.2041285185E+02   0.41259E-04   0.91381E-03        553.69
     545  -0.2041189678E+02  -0.2041282229E+02   0.40032E-04   0.88547E-03        553.70
     546  -0.2041189678E+02  -0.2041279263E+02   0.38811E-04   0.85704E-03        553.68
     547  -0.2041189678E+02  -0.2041276292E+02   0.37596E-04   0.82855E-03        553.62
     548  -0.2041189678E+02  -0.2041273318E+02   0.36385E-04   0.80002E-03        553.53
     549  -0.2041189677E+02  -0.2041270346E+02   0.35178E-04   0.77151E-03        553.41
     550  -0.2041189677E+02  -0.2041267378E+02   0.33972E-04   0.74304E-03        553.26
     551  -0.2041189677E+02  -0.2041264419E+02   0.32763E-04   0.71465E-03        553.08
     552  -0.2041189677E+02  -0.2041261471E+02   0.31547E-04   0.68639E-03        552.86
     553  -0.2041189676E+02  -0.2041258538E+02   0.30324E-04   0.65829E-03        552.61
     554  -0.2041189676E+02  -0.2041255624E+02   0.29095E-04   0.63038E-03        552.33
     555  -0.2041189676E+02  -0.2041252733E+02   0.27858E-04   0.60271E-03        552.02
     556  -0.2041189676E+02  -0.2041249867E+02   0.26617E-04   0.57529E-03        551.69
     557  -0.2041189676E+02  -0.2041247031E+02   0.25377E-04   0.54818E-03        551.32
     558  -0.2041189675E+02  -0.2041244228E+02   0.24141E-04   0.52139E-03        550.92
     559  -0.2041189675E+02  -0.2041241462E+02   0.22915E-04   0.49495E-03        550.49
     560  -0.2041189675E+02  -0.2041238735E+02   0.21700E-04   0.46890E-03        550.04
     561  -0.2041189675E+02  -0.2041236052E+02   0.20502E-04   0.44327E-03        549.56
     562  -0.2041189675E+02  -0.2041233415E+02   0.19324E-04   0.41808E-03        549.05
     563  -0.2041189674E+02  -0.2041230828E+02   0.18166E-04   0.39337E-03        548.52
     564  -0.2041189674E+02  -0.2041228294E+02   0.17031E-04   0.36917E-03        547.96
     565  -0.2041189674E+02  -0.2041225816E+02   0.15922E-04   0.34550E-03        547.38
     566  -0.2041189674E+02  -0.2041223398E+02   0.14842E-04   0.32240E-03        546.77
     567  -0.2041189674E+02  -0.2041221042E+02   0.13791E-04   0.29990E-03        546.14
     568  -0.2041189673E+02  -0.2041218753E+02   0.12771E-04   0.27802E-03        545.49
     569  -0.2041189673E+02  -0.2041216532E+02   0.11786E-04   0.25680E-03        544.82
     570  -0.2041189673E+02  -0.2041214383E+02   0.10837E-04   0.23626E-03        544.13
     571  -0.2041189673E+02  -0.2041212308E+02   0.99253E-05   0.21643E-03        543.42
     572  -0.2041189673E+02  -0.2041210310E+02   0.90511E-05   0.19733E-03        542.68
     573  -0.2041189673E+02  -0.2041208393E+02   0.82162E-05   0.17899E-03        541.94
     574  -0.2041189672E+02  -0.2041206557E+02   0.74207E-05   0.16143E-03        541.17
     575  -0.2041189672E+02  -0.2041204806E+02   0.66644E-05   0.14467E-03        540.39
     576  -0.2041189672E+02  -0.2041203141E+02   0.59480E-05   0.12874E-03        539.59
     577  -0.2041189672E+02  -0.2041201565E+02   0.52719E-05   0.11366E-03        538.78
     578  -0.2041189672E+02  -0.2041200080E+02   0.46362E-05   0.99448E-04        537.96
     579  -0.2041189672E+02  -0.2041198688E+02   0.40411E-05   0.86120E-04        537.13
     580  -0.2041189672E+02  -0.2041197390E+02   0.34883E-05   0.73695E-04        536.28
     581  -0.2041189672E+02  -0.2041196189E+02   0.29791E-05   0.62192E-04        535.43
     582  -0.2041189671E+02  -0.2041195085E+02   0.25140E-05   0.51626E-04        534.57
     583  -0.2041189671E+02  -0.2041194082E+02   0.20932E-05   0.42010E-04        533.70
     584  -0.2041189671E+02  -0.2041193179E+02   0.17174E-05   0.33359E-04        532.82
     585  -0.2041189671E+02  -0.2041192378E+02   0.13863E-05   0.25685E-04        531.94
     586  -0.2041189671E+02  -0.2041191681E+02   0.10990E-05   0.18997E-04        531.05
     587  -0.2041189671E+02  -0.2041191087E+02   0.85485E-06   0.13305E-04        530.17
     588  -0.2041189671E+02  -0.2041190598E+02   0.65415E-06   0.86173E-05        529.27
     589  -0.2041189671E+02  -0.2041190215E+02   0.49678E-06   0.49392E-05        528.38
     590  -0.2041189671E+02  -0.2041189937E+02   0.38217E-06   0.22758E-05        527.49
     591  -0.2041189671E+02  -0.2041189765E+02   0.31031E-06   0.63088E-06        526.60
     592  -0.2041189671E+02  -0.2041189700E+02   0.28173E-06   0.64260E-08        525.71
     593  -0.2041189671E+02  -0.2041189741E+02   0.29652E-06   0.40336E-06        524.83
     594  -0.2041189671E+02  -0.2041189889E+02   0.35419E-06   0.18213E-05        523.95
     595  -0.2041189671E+02  -0.2041190142E+02   0.45455E-06   0.42583E-05        523.07
     596  -0.2041189671E+02  -0.2041190502E+02   0.59802E-06   0.77114E-05        522.21
     597  -0.2041189671E+02  -0.2041190967E+02   0.78507E-06   0.12176E-04        521.35
     598  -0.2041189671E+02  -0.2041191537E+02   0.10160E-05   0.17645E-04        520.49
     599  -0.2041189671E+02  -0.2041192211E+02   0.12913E-05   0.24111E-04        519.65
     600  -0.2041189671E+02  -0.2041192989E+02   0.16117E-05   0.31564E-04        518.82
     601  -0.2041189671E+02  -0.2041193868E+02   0.19777E-05   0.39993E-04        518.00
     602  -0.2041189671E+02  -0.2041194849E+02   0.23900E-05   0.49385E-04        517.19
     603  -0.2041189672E+02  -0.2041195929E+02   0.28496E-05   0.59726E-04        516.40
     604  -0.2041189672E+02  -0.2041197107E+02   0.33581E-05   0.71000E-04        515.62
     605  -0.2041189672E+02  -0.2041198382E+02   0.39165E-05   0.83191E-04        514.86
     606  -0.2041189672E+02  -0.2041199753E+02   0.45252E-05   0.96282E-04        514.11
     607  -0.2041189672E+02  -0.2041201216E+02   0.51842E-05   0.11026E-03        513.38
     608  -0.2041189672E+02  -0.2041202771E+02   0.58926E-05   0.12510E-03        512.66
     609  -0.2041189672E+02  -0.2041204416E+02   0.66482E-05   0.14079E-03        511.97
     610  -0.2041189672E+02  -0.2041206148E+02   0.74466E-05   0.15731E-03        511.29
     611  -0.2041189672E+02  -0.2041207965E+02   0.82829E-05   0.17464E-03        510.64
     612  -0.2041189673E+02  -0.2041209864E+02   0.91514E-05   0.19276E-03        510.00
     613  -0.2041189673E+02  -0.2041211844E+02   0.10047E-04   0.21166E-03        509.39
     614  -0.2041189673E+02  -0.2041213901E+02   0.10963E-04   0.23132E-03        508.80
     615  -0.2041189673E+02  -0.2041216033E+02   0.11898E-04   0.25170E-03        508.23
     616  -0.2041189673E+02  -0.2041218238E+02   0.12849E-04   0.27279E-03        507.69
     617  -0.2041189674E+02  -0.2041220511E+02   0.13815E-04   0.29456E-03        507.17
     618  -0.2041189674E+02  -0.2041222851E+02   0.14797E-04   0.31698E-03        506.67
     619  -0.2041189674E+02  -0.2041225255E+02   0.15797E-04   0.34001E-03        506.20
     620  -0.2041189674E+02  -0.2041227719E+02   0.16817E-04   0.36363E-03        505.75
     621  -0.2041189674E+02  -0.2041230240E+02   0.17861E-04   0.38780E-03        505.34
     622  -0.2041189674E+02  -0.2041232816E+02   0.18931E-04   0.41249E-03        504.94
     623  -0.2041189675E+02  -0.2041235442E+02   0.20029E-04   0.43765E-03        504.58
     624  -0.2041189675E+02  -0.2041238116E+02   0.21155E-04   0.46326E-03        504.24
     625  -0.2041189675E+02  -0.2041240834E+02   0.22309E-04   0.48928E-03        503.92
     626  -0.2041189675E+02  -0.2041243592E+02   0.23491E-04   0.51568E-03        503.64
     627  -0.2041189676E+02  -0.2041246387E+02   0.24697E-04   0.54242E-03        503.38
     628  -0.2041189676E+02  -0.2041249216E+02   0.25925E-04   0.56948E-03        503.16
     629  -0.2041189676E+02  -0.2041252075E+02   0.27171E-04   0.59682E-03        502.96
     630  -0.2041189676E+02  -0.2041254960E+02   0.28432E-04   0.62441E-03        502.78
     631  -0.2041189676E+02  -0.2041257869E+02   0.29705E-04   0.65222E-03        502.64
     632  -0.2041189677E+02  -0.2041260798E+02   0.30988E-04   0.68022E-03        502.52
     633  -0.2041189677E+02  -0.2041263742E+02   0.32275E-04   0.70838E-03        502.44
     634  -0.2041189677E+02  -0.2041266699E+02   0.33565E-04   0.73666E-03        502.38
     635  -0.2041189677E+02  -0.2041269666E+02   0.34854E-04   0.76503E-03        502.35
     636  -0.2041189677E+02  -0.2041272638E+02   0.36138E-04   0.79346E-03        502.35
     637  -0.2041189678E+02  -0.2041275612E+02   0.37413E-04   0.82193E-03        502.37
     638  -0.2041189678E+02  -0.2041278584E+02   0.38674E-04   0.85039E-03        502.43
     639  -0.2041189678E+02  -0.2041281552E+02   0.39920E-04   0.87882E-03        502.51
     640  -0.2041189678E+02  -0.2041284511E+02   0.41145E-04   0.90718E-03        502.62
     641  -0.2041189679E+02  -0.2041287458E+02   0.42347E-04   0.93544E-03        502.76
     642  -0.2041189679E+02  -0.2041290389E+02   0.43527E-04   0.96358E-03        502.92
     643  -0.2041189679E+02  -0.2041293302E+02   0.44686E-04   0.99154E-03        503.11
     644  -0.2041189679E+02  -0.2041296192E+02   0.45827E-04   0.10193E-02        503.33
     645  -0.2041189679E+02  -0.2041299057E+02   0.46956E-04   0.10468E-02        503.57
     646  -0.2041189680E+02  -0.2041301894E+02   0.48080E-04   0.10741E-02        503.84
     647  -0.2041189680E+02  -0.2041304699E+02   0.49206E-04   0.11010E-02        504.14
     648  -0.2041189680E+02  -0.2041307470E+02   0.50342E-04   0.11276E-02        504.46
     649  -0.2041189680E+02  -0.2041310203E+02   0.51491E-04   0.11537E-02        504.81
     650  -0.2041189680E+02  -0.2041312895E+02   0.52659E-04   0.11795E-02        505.17
     651  -0.2041189680E+02  -0.2041315543E+02   0.53845E-04   0.12048E-02        505.57
     652  -0.2041189681E+02  -0.2041318145E+02   0.55048E-04   0.12296E-02        505.98
     653  -0.2041189681E+02  -0.2041320697E+02   0.56264E-04   0.12539E-02        506.42
     654  -0.2041189681E+02  -0.2041323196E+02   0.57485E-04   0.12777E-02        506.88
     655  -0.2041189681E+02  -0.2041325642E+02   0.58704E-04   0.13009E-02        507.36
     656  -0.2041189681E+02  -0.2041328029E+02   0.59910E-04   0.13236E-02        507.86
     657  -0.2041189681E+02  -0.2041330357E+02   0.61091E-04   0.13457E-02        508.38
     658  -0.2041189682E+02  -0.2041332623E+02   0.62238E-04   0.13672E-02        508.92
     659  -0.2041189682E+02  -0.2041334825E+02   0.63338E-04   0.13881E-02        509.47
     660  -0.2041189682E+02  -0.2041336959E+02   0.64381E-04   0.14084E-02        510.05
     661  -0.2041189682E+02  -0.2041339025E+02   0.65359E-04   0.14281E-02        510.64
     662  -0.2041189682E+02  -0.2041341020E+02   0.66266E-04   0.14471E-02        511.25
     663  -0.2041189682E+02  -0.2041342942E+02   0.67098E-04   0.14655E-02        511.87
     664  -0.2041189682E+02  -0.2041344790E+02   0.67854E-04   0.14832E-02        512.51
     665  -0.2041189682E+02  -0.2041346561E+02   0.68536E-04   0.15002E-02        513.16
     666  -0.2041189682E+02  -0.2041348254E+02   0.69148E-04   0.15166E-02        513.83
     667  -0.2041189682E+02  -0.2041349867E+02   0.69694E-04   0.15322E-02        514.51
     668  -0.2041189683E+02  -0.2041351400E+02   0.70183E-04   0.15470E-02        515.20
     669  -0.2041189683E+02  -0.2041352851E+02   0.70622E-04   0.15611E-02        515.90
     670  -0.2041189683E+02  -0.2041354218E+02   0.71019E-04   0.15743E-02        516.62
     671  -0.2041189683E+02  -0.2041355501E+02   0.71381E-04   0.15868E-02        517.34
[...]
     899  -0.2041189683E+02  -0.2041363115E+02   0.74185E-04   0.16601E-02        528.30
     900  -0.2041189683E+02  -0.2041362622E+02   0.74099E-04   0.16553E-02        528.87
     901  -0.2041189683E+02  -0.2041362039E+02   0.73984E-04   0.16496E-02        529.44
     902  -0.2041189683E+02  -0.2041361366E+02   0.73833E-04   0.16430E-02        530.00
     903  -0.2041189683E+02  -0.2041360604E+02   0.73639E-04   0.16356E-02        530.56
     904  -0.2041189683E+02  -0.2041359753E+02   0.73398E-04   0.16273E-02        531.11
     905  -0.2041189683E+02  -0.2041358814E+02   0.73102E-04   0.16182E-02        531.65
     906  -0.2041189683E+02  -0.2041357787E+02   0.72747E-04   0.16083E-02        532.18
     907  -0.2041189683E+02  -0.2041356672E+02   0.72328E-04   0.15976E-02        532.71
     908  -0.2041189683E+02  -0.2041355471E+02   0.71845E-04   0.15860E-02        533.23
     909  -0.2041189683E+02  -0.2041354185E+02   0.71296E-04   0.15737E-02        533.73
     910  -0.2041189683E+02  -0.2041352814E+02   0.70683E-04   0.15606E-02        534.23
     911  -0.2041189683E+02  -0.2041351360E+02   0.70011E-04   0.15468E-02        534.71
     912  -0.2041189682E+02  -0.2041349823E+02   0.69284E-04   0.15321E-02        535.19
     913  -0.2041189682E+02  -0.2041348206E+02   0.68510E-04   0.15167E-02        535.65
     914  -0.2041189682E+02  -0.2041346510E+02   0.67694E-04   0.15006E-02        536.10
     915  -0.2041189682E+02  -0.2041344736E+02   0.66845E-04   0.14837E-02        536.54
     916  -0.2041189682E+02  -0.2041342887E+02   0.65970E-04   0.14661E-02        536.96
     917  -0.2041189682E+02  -0.2041340962E+02   0.65075E-04   0.14477E-02        537.37
     918  -0.2041189682E+02  -0.2041338966E+02   0.64163E-04   0.14287E-02        537.77
     919  -0.2041189682E+02  -0.2041336898E+02   0.63241E-04   0.14089E-02        538.15
     920  -0.2041189682E+02  -0.2041334762E+02   0.62309E-04   0.13885E-02        538.52
     921  -0.2041189682E+02  -0.2041332559E+02   0.61369E-04   0.13674E-02        538.87
     922  -0.2041189681E+02  -0.2041330292E+02   0.60420E-04   0.13457E-02        539.21
     923  -0.2041189681E+02  -0.2041327962E+02   0.59462E-04   0.13233E-02        539.53
     924  -0.2041189681E+02  -0.2041325572E+02   0.58493E-04   0.13004E-02        539.84
     925  -0.2041189681E+02  -0.2041323126E+02   0.57510E-04   0.12769E-02        540.12
     926  -0.2041189681E+02  -0.2041320624E+02   0.56510E-04   0.12529E-02        540.39
     927  -0.2041189681E+02  -0.2041318071E+02   0.55492E-04   0.12284E-02        540.65
     928  -0.2041189680E+02  -0.2041315468E+02   0.54452E-04   0.12034E-02        540.88
     929  -0.2041189680E+02  -0.2041312818E+02   0.53388E-04   0.11780E-02        541.10
     930  -0.2041189680E+02  -0.2041310126E+02   0.52298E-04   0.11522E-02        541.30
     931  -0.2041189680E+02  -0.2041307392E+02   0.51182E-04   0.11259E-02        541.49
     932  -0.2041189680E+02  -0.2041304621E+02   0.50035E-04   0.10994E-02        541.65
     933  -0.2041189680E+02  -0.2041301816E+02   0.48859E-04   0.10725E-02        541.79
     934  -0.2041189679E+02  -0.2041298978E+02   0.47653E-04   0.10453E-02        541.92
     935  -0.2041189679E+02  -0.2041296113E+02   0.46420E-04   0.10179E-02        542.03
     936  -0.2041189679E+02  -0.2041293222E+02   0.45159E-04   0.99027E-03        542.12
     937  -0.2041189679E+02  -0.2041290309E+02   0.43873E-04   0.96243E-03        542.19
     938  -0.2041189679E+02  -0.2041287377E+02   0.42568E-04   0.93441E-03        542.24
     939  -0.2041189678E+02  -0.2041284430E+02   0.41247E-04   0.90627E-03        542.27
     940  -0.2041189678E+02  -0.2041281471E+02   0.39915E-04   0.87801E-03        542.28
     941  -0.2041189678E+02  -0.2041278504E+02   0.38576E-04   0.84968E-03        542.28
     942  -0.2041189678E+02  -0.2041275531E+02   0.37237E-04   0.82130E-03        542.25
     943  -0.2041189677E+02  -0.2041272558E+02   0.35901E-04   0.79290E-03        542.21
     944  -0.2041189677E+02  -0.2041269587E+02   0.34573E-04   0.76452E-03        542.15
     945  -0.2041189677E+02  -0.2041266621E+02   0.33255E-04   0.73618E-03        542.06
     946  -0.2041189677E+02  -0.2041263664E+02   0.31952E-04   0.70792E-03        541.96
     947  -0.2041189677E+02  -0.2041260719E+02   0.30665E-04   0.67976E-03        541.85
     948  -0.2041189676E+02  -0.2041257790E+02   0.29396E-04   0.65174E-03        541.71
     949  -0.2041189676E+02  -0.2041254881E+02   0.28149E-04   0.62390E-03        541.55
     950  -0.2041189676E+02  -0.2041251995E+02   0.26924E-04   0.59627E-03        541.38
     951  -0.2041189676E+02  -0.2041249136E+02   0.25722E-04   0.56888E-03        541.19
     952  -0.2041189676E+02  -0.2041246307E+02   0.24541E-04   0.54177E-03        540.98
     953  -0.2041189675E+02  -0.2041243512E+02   0.23384E-04   0.51498E-03        540.75
     954  -0.2041189675E+02  -0.2041240754E+02   0.22248E-04   0.48854E-03        540.51
     955  -0.2041189675E+02  -0.2041238038E+02   0.21130E-04   0.46250E-03        540.25
     956  -0.2041189675E+02  -0.2041235365E+02   0.20030E-04   0.43687E-03        539.97
     957  -0.2041189674E+02  -0.2041232740E+02   0.18946E-04   0.41171E-03        539.68
     958  -0.2041189674E+02  -0.2041230167E+02   0.17876E-04   0.38705E-03        539.37
     959  -0.2041189674E+02  -0.2041227647E+02   0.16818E-04   0.36291E-03        539.05
     960  -0.2041189674E+02  -0.2041225185E+02   0.15772E-04   0.33934E-03        538.71
     961  -0.2041189674E+02  -0.2041222783E+02   0.14741E-04   0.31636E-03        538.36
     962  -0.2041189674E+02  -0.2041220445E+02   0.13724E-04   0.29399E-03        537.99
     963  -0.2041189673E+02  -0.2041218173E+02   0.12724E-04   0.27228E-03        537.61
     964  -0.2041189673E+02  -0.2041215971E+02   0.11745E-04   0.25123E-03        537.22
     965  -0.2041189673E+02  -0.2041213841E+02   0.10793E-04   0.23089E-03        536.82
     966  -0.2041189673E+02  -0.2041211786E+02   0.98698E-05   0.21126E-03        536.40
     967  -0.2041189673E+02  -0.2041209809E+02   0.89812E-05   0.19238E-03        535.97
     968  -0.2041189672E+02  -0.2041207912E+02   0.81317E-05   0.17426E-03        535.53
     969  -0.2041189672E+02  -0.2041206098E+02   0.73250E-05   0.15693E-03        535.08
     970  -0.2041189672E+02  -0.2041204369E+02   0.65623E-05   0.14041E-03        534.62
     971  -0.2041189672E+02  -0.2041202728E+02   0.58446E-05   0.12471E-03        534.15
     972  -0.2041189672E+02  -0.2041201176E+02   0.51731E-05   0.10986E-03        533.68
     973  -0.2041189672E+02  -0.2041199715E+02   0.45473E-05   0.95885E-04        533.19
     974  -0.2041189672E+02  -0.2041198348E+02   0.39656E-05   0.82793E-04        532.70
     975  -0.2041189672E+02  -0.2041197075E+02   0.34274E-05   0.70609E-04        532.20
     976  -0.2041189672E+02  -0.2041195900E+02   0.29326E-05   0.59348E-04        531.69
     977  -0.2041189671E+02  -0.2041194822E+02   0.24800E-05   0.49028E-04        531.18
     978  -0.2041189671E+02  -0.2041193845E+02   0.20685E-05   0.39663E-04        530.66
     979  -0.2041189671E+02  -0.2041192968E+02   0.16991E-05   0.31267E-04        530.14
     980  -0.2041189671E+02  -0.2041192193E+02   0.13723E-05   0.23850E-04        529.61
     981  -0.2041189671E+02  -0.2041191522E+02   0.10876E-05   0.17423E-04        529.09
     982  -0.2041189671E+02  -0.2041190955E+02   0.84516E-06   0.11994E-04        528.56
     983  -0.2041189671E+02  -0.2041190493E+02   0.64622E-06   0.75702E-05        528.02
     984  -0.2041189671E+02  -0.2041190136E+02   0.49141E-06   0.41564E-05        527.49
     985  -0.2041189671E+02  -0.2041189885E+02   0.38004E-06   0.17568E-05        526.96
     986  -0.2041189671E+02  -0.2041189740E+02   0.31220E-06   0.37430E-06        526.42
     987  -0.2041189671E+02  -0.2041189701E+02   0.28902E-06   0.10405E-07        525.89
     988  -0.2041189671E+02  -0.2041189769E+02   0.31068E-06   0.66543E-06        525.36
     989  -0.2041189671E+02  -0.2041189943E+02   0.37680E-06   0.23384E-05        524.83
     990  -0.2041189671E+02  -0.2041190223E+02   0.48843E-06   0.50269E-05        524.30
     991  -0.2041189671E+02  -0.2041190609E+02   0.64726E-06   0.87272E-05        523.78
     992  -0.2041189671E+02  -0.2041191100E+02   0.85356E-06   0.13434E-04        523.26
     993  -0.2041189671E+02  -0.2041191696E+02   0.11071E-05   0.19142E-04        522.75
     994  -0.2041189671E+02  -0.2041192396E+02   0.14086E-05   0.25843E-04        522.24
     995  -0.2041189671E+02  -0.2041193200E+02   0.17582E-05   0.33528E-04        521.73
     996  -0.2041189671E+02  -0.2041194105E+02   0.21538E-05   0.42187E-04        521.24
     997  -0.2041189671E+02  -0.2041195112E+02   0.25932E-05   0.51811E-04        520.75
     998  -0.2041189672E+02  -0.2041196218E+02   0.30757E-05   0.62387E-04        520.27
     999  -0.2041189672E+02  -0.2041197422E+02   0.36000E-05   0.73903E-04        519.79
    1000  -0.2041189672E+02  -0.2041198722E+02   0.41633E-05   0.86344E-04        519.33
 *** arived at the Maximum iteration.   terminated.
     >>>  ITERATION ENDED   AT Mon Aug  9 16:50:13 2010  <<<


 Elapsed time of simulation was 120.944 fs



          =============  summary of results  =================

 final position of ions:
        1 S    (    0.00000    0.00000   -1.73751 ) - atomic mass=  31.972 
        2 S    (    0.00000    0.00000    1.73751 ) - atomic mass=  31.972 
        G.C.   (    0.00000    0.00000    0.00000 )
        C.O.M. (    0.00000    0.00000    0.00000 )

 final velocity of ions:
        1 S    (    0.00000    0.00000   -0.00004 )
        2 S    (    0.00000    0.00000    0.00004 )
        G.C.   (    0.00000    0.00000    0.00000 )
        C.O.M. (    0.00000    0.00000    0.00000 )
 
 number of electrons: spin up=    7.00000  down=    5.00000 (real space)

 total     energy    :  -0.2041198722E+02 (   -0.10206E+02/ion)
 total orbital energy:  -0.4973635001E+01 (   -0.41447E+00/electron)
 hartree   energy    :   0.1703713644E+02 (    0.14198E+01/electron)
 exc-corr  energy    :  -0.4342335445E+01 (   -0.36186E+00/electron)
 ion-ion   energy    :   0.2643181903E+00 (    0.13216E+00/ion)

 Kinetic energy (elc)    :   0.4163313222E-05 (    0.34694E-06/elc)
 Kinetic energy (ion)    :   0.8634363416E-04 (    0.43172E-04/ion)

 final kinetic energy:   0.41633E-05 (psi)   0.86344E-04 (ion)
                                             0.10216E-39 (c.o.m.)
 Temperature :           0.0 K (elc)
 Temperature :         519.3 K (ion)
             :           0.0 K (c.o.m.)

 Vaverage  Eaverage :      -0.2041275694E+02  -0.2041189677E+02
 Vvariance Evariance:       0.3848835490E-06  -0.1705302566E-12
 Cv - f*kb/(2*nion) :       0.2253179697E-06

 orbital energies:
    -0.1953281E+00 (  -5.315eV)
    -0.1953285E+00 (  -5.315eV)
    -0.3352389E+00 (  -9.122eV)    -0.3052569E+00 (  -8.307eV)
    -0.3352393E+00 (  -9.122eV)    -0.3052575E+00 (  -8.307eV)
    -0.3593848E+00 (  -9.779eV)    -0.3357659E+00 (  -9.137eV)
    -0.5579205E+00 ( -15.182eV)    -0.5191027E+00 ( -14.126eV)
    -0.7759321E+00 ( -21.114eV)    -0.7538798E+00 ( -20.514eV)

 Total PSPW energy   :  -0.2041198722E+02


=== Spin Contamination ===
 
 <Sexact^2> =    2.00000000000000     
 <S^2>      =    2.00287537330398     
 


== Center of Charge ==

spin up     (    0.0000,    0.0000,    0.0000 )
spin down   (    0.0000,    0.0000,    0.0000 )
     total  (    0.0000,    0.0000,    0.0000 )
ionic       (    0.0000,    0.0000,    0.0000 )
crystal     (    0.0000,    0.0000,    0.0000 )


== Crystal Dipole ==

mu   =  (    0.0002,   -0.0002,    0.0000 ) au
|mu| =     0.0003 au,       0.0009 Debye


== Molecular Dipole wrt Center of Mass ==

mu   =  (    0.0002,   -0.0002,    0.0000 ) au
|mu| =     0.0003 au,       0.0009 Debye

 output psi filename:./perm/s2-md.movecs

 output vpsi filename:./perm/s2-md.vmovecs
 
 ===== Calculating pair distribution function ====
 
 
 frames used:                    1000
 natoms:                            2
 delr:           1.000000000000000E-002
 volume:          8000.00000000000     
 maxbin:                          999
 MOTION filename:     
 ./perm/s2-md.ion_motion                                                        
                                                                                
                                                                                
                   
 g(r)   filename:     
 ./perm/PAIR_DISTRIBUTION                                                       
                                                                                
                                                                                
                   
 
 
 ===== Calculating radial distribution functions ====
 
 
 frames used:                   1000
 natoms:                           2
 nkatoms:                          1
 atoms:       
 S                                                                              
                                                                                
                                                                                
                   
 delr:          1.000000000000000E-002
 volume:         8000.00000000000     
    a1:        20.000   0.000   0.000
    a2:         0.000  20.000   0.000
    a3:         0.000   0.000  20.000
 maxbin:                         999
 MOTION filename:    ./perm/s2-md.ion_motion 
 
 creating gr filename:./perm/SS.gr 
 creating hist filename:./perm/SS.hist 
 
 
 ===== Calculating velocity auto correlation ====
 
 
 frames used:                   1000
 natoms:                           2
 volume:         8000.00000000000     
 time interval (au)       :    5.00000000000000     
 Max time      (au)       :    4995.00000000000     
 frequency interval (cm-1):    275.976477774143     
 Max frequency (cm-1)     :    137988.238887072     
 MOTION filename: 
 ./perm/s2-md.ion_motion                                                        
                                                                                
                                                                                
                   
 <v*v>  filename: 
 ./perm/VEL_CORRELATION                                                         
                                                                                
                                                                                
                   
 s(k)   filename: 
 ./perm/POWER_SPECTRUM                                                          
                                                                                
                                                                                
                   
 
 
 -----------------
 cputime in seconds
 prologue    :   0.842375041054321     
 main loop   :    67.7282288064493     
 epilogue    :   0.932532072067261     
 total       :    69.5031359195709     
 cputime/step:   6.772822880644934E-002
 


Time spent doing                        total          step
  FFTs                       :   0.363660E+01  0.363660E-02
  dot products               :   0.112223E+02  0.112223E-01
  geodesic                   :   0.205468E+01  0.205468E-02
  ffm_dgemm                  :   0.212315E+01  0.212315E-02
  fmf_dgemm                  :   0.456944E+00  0.456944E-03
  m_diagonalize              :   0.419617E-04  0.419617E-07
    - m_tredq                :   0.000000E+00  0.000000E+00
    - m_getdiags             :   0.000000E+00  0.000000E+00
    - m_tqliq                :   0.000000E+00  0.000000E+00
    - m_eigsrt               :   0.000000E+00  0.000000E+00
  exchange correlation       :   0.607874E+01  0.607874E-02
  local pseudopotentials     :   0.317171E+01  0.317171E-02
  non-local pseudopotentials :   0.597085E+01  0.597085E-02
  hartree potentials         :   0.191857E+00  0.191857E-03
  ion-ion interaction        :   0.142507E+01  0.142507E-02
  structure factors          :   0.271312E+00  0.271312E-03
  phase factors              :   0.382257E-02  0.382257E-05
  masking and packing        :   0.506283E+01  0.506283E-02
  queue fft                  :   0.361990E+02  0.361990E-01
  queue fft (serial)         :   0.116923E+02  0.116923E-01
  queue fft (message passing):   0.239237E+02  0.239237E-01
  HFX potential              :   0.000000E+00  0.000000E+00
  qmmm LJ                    :   0.000000E+00  0.000000E+00
  qmmm residual Q            :   0.000000E+00  0.000000E+00
     >>>  JOB COMPLETED     AT Mon Aug  9 16:50:14 2010  <<<

 Task  times  cpu:       41.6s     wall:       69.5s
 
 
                                NWChem Input Module
                                -------------------
 
 
 Summary of allocated global arrays
-----------------------------------
  No active global arrays



                         GA Statistics for process    0
                         ------------------------------

       create   destroy   get      put      acc     scatter   gather  read&inc
calls:    0        0        0        0        0        0        0        0     
number of processes/call 0.00e+00 0.00e+00 0.00e+00 0.00e+00 0.00e+00
bytes total:             0.00e+00 0.00e+00 0.00e+00 0.00e+00 0.00e+00 0.00e+00
bytes remote:            0.00e+00 0.00e+00 0.00e+00 0.00e+00 0.00e+00 0.00e+00
Max memory consumed for GA by this process: 0 bytes
 



                                  ACKNOWLEDGEMENT
                                  ---------------

            Please use the following acknowledgement where appropriate 
            for results obtained with NWChem:

            High Performance Computational Chemistry Group, "NWChem, A
            Computational Chemistry Package for Parallel Computers, 
            Version 5.1.1" (2008), Pacific Northwest National Laboratory,
            Richland, Washington 99352-0999, USA.


                                     CITATION
                                     --------

          Please use the following citation when publishing results
          obtained with NWChem:

          E. J. Bylaska, W. A. de Jong, N. Govind, K. Kowalski, T. P. Straatsma,
          M. Valiev, H. J. J. Van Dam, D. Wang, E. Apra, T. L. Windus, J. Hammond,
          J. Autschbach, P. Nichols, S. Hirata, M. T. Hackler, Y. Zhao, P.-D. Fan,
          R. J. Harrison, M. Dupuis, D. M. A. Smith, J. Nieplocha, V. Tipparaju,
          M. Krishnan, A. Vazquez-Mayagoitia, L. Jensen, M. Swart, Q. Wu,
          T. Van Voorhis, A. A. Auer, M. Nooijen, L. D. Crosby, E. Brown, 
          G. Cisneros, G. I. Fann, H. Fruchtl, J. Garza, K. Hirao,
          R. Kendall, J. A. Nichols, K. Tsemekhman, K. Wolinski, J. Anchell, 
          D. Bernholdt, P. Borowski, T. Clark, D. Clerc, H. Dachsel, M. Deegan, 
          K. Dyall, D. Elwood, E. Glendening, M. Gutowski, A. Hess, J. Jaffe, 
          B. Johnson, J. Ju, R. Kobayashi, R. Kutteh, Z. Lin, R. Littlefield, 
          X. Long, B. Meng, T. Nakajima, S. Niu, L. Pollack, M. Rosing, 
          G. Sandrone, M. Stave, H. Taylor, G. Thomas, J. van Lenthe, 
          A. Wong, and Z. Zhang,
          "NWChem, A Computational Chemistry Package for Parallel Computers, 
          Version 5.1.1" (2008),
                      Pacific Northwest National Laboratory,
                      Richland, Washington 99352-0999, USA.



 Total times  cpu:       49.7s     wall:       86.9s
MA_summarize_allocated_blocks: starting scan ...
MA_summarize_allocated_blocks: scan completed: 0 heap blocks, 0 stack blocks
MA usage statistics:

	allocation statistics:
					      heap	     stack
					      ----	     -----
	current number of blocks	         0	         0
	maximum number of blocks	       235	        21
	current total bytes		         0	         0
	maximum total bytes		  16717672	   2860136
	maximum total K-bytes		     16718	      2861
	maximum total M-bytes		        17	         3
