 argument  1 = h2o-tddft.nw
  NWChem w/ OpenMP: maximum threads =    4



============================== echo of input deck ==============================
echo

start h2o-uv-vis

title h2o-uv-vis

geometry
 O     0.00000000     0.00000000     0.12982363
 H     0.75933475     0.00000000    -0.46621158
 H    -0.75933475     0.00000000    -0.46621158
end

basis
 O library 6-31G**
 H library 6-31G**
end

dft
 xc b3lyp
end

tddft
 nroots 10
 notriplet
end

task tddft energy
================================================================================


                                         
                                         


              Northwest Computational Chemistry Package (NWChem) 6.8
              ------------------------------------------------------


                    Environmental Molecular Sciences Laboratory
                       Pacific Northwest National Laboratory
                                Richland, WA 99352

                              Copyright (c) 1994-2018
                       Pacific Northwest National Laboratory
                            Battelle Memorial Institute

             NWChem is an open-source computational chemistry package
                        distributed under the terms of the
                      Educational Community License (ECL) 2.0
             A copy of the license is included with this distribution
                              in the LICENSE.TXT file

                                  ACKNOWLEDGMENT
                                  --------------

            This software and its documentation were developed at the
            EMSL at Pacific Northwest National Laboratory, a multiprogram
            national laboratory, operated for the U.S. Department of Energy
            by Battelle under Contract Number DE-AC05-76RL01830. Support
            for this work was provided by the Department of Energy Office
            of Biological and Environmental Research, Office of Basic
            Energy Sciences, and the Office of Advanced Scientific Computing.


           Job information
           ---------------

    hostname        = durian
    program         = /home/edo/nwchem/nwchem.last/bin/LINUX64/nwchem
    date            = Wed Jul 17 19:00:28 2019

    compiled        = Wed_Jul_17_09:24:12_2019
    source          = /home/edo/nwchem/nwchem.last
    nwchem branch   = Development
    nwchem revision = nwchem_on_git-980-g32d152c54
    ga revision     = 5.7.0
    use scalapack   = T
    input           = h2o-tddft.nw
    prefix          = h2o-uv-vis.
    data base       = ./h2o-uv-vis.db
    status          = startup
    nproc           =        3
    time left       =     -1s



           Memory information
           ------------------

    heap     =  259919006 doubles =   1983.0 Mbytes
    stack    =  259919003 doubles =   1983.0 Mbytes
    global   =  519838016 doubles =   3966.0 Mbytes (distinct from heap & stack)
    total    = 1039676025 doubles =   7932.1 Mbytes
    verify   = yes
    hardfail = no 


           Directory information
           ---------------------

  0 permanent = .
  0 scratch   = .




                                NWChem Input Module
                                -------------------


                                    h2o-uv-vis
                                    ----------

 Scaling coordinates for geometry "geometry" by  1.889725989
 (inverse scale =  0.529177249)

 C2V symmetry detected

          ------
          auto-z
          ------
  no constraints, skipping    0.0000000000000000     
  no constraints, skipping    0.0000000000000000     


                             Geometry "geometry" -> ""
                             -------------------------

 Output coordinates in angstroms (scale by  1.889725989 to convert to a.u.)

  No.       Tag          Charge          X              Y              Z
 ---- ---------------- ---------- -------------- -------------- --------------
    1 O                    8.0000     0.00000000     0.00000000     0.11920704
    2 H                    1.0000     0.75933475     0.00000000    -0.47682817
    3 H                    1.0000    -0.75933475     0.00000000    -0.47682817

      Atomic Mass 
      ----------- 

      O                 15.994910
      H                  1.007825


 Effective nuclear repulsion energy (a.u.)       9.1194413826

            Nuclear Dipole moment (a.u.) 
            ----------------------------
        X                 Y               Z
 ---------------- ---------------- ----------------
     0.0000000000     0.0000000000     0.0000000000

      Symmetry information
      --------------------

 Group name             C2v       
 Group number             16
 Group order               4
 No. of unique centers     2

      Symmetry unique atoms

     1    2



                                Z-matrix (autoz)
                                -------- 

 Units are Angstrom for bonds and degrees for angles

      Type          Name      I     J     K     L     M      Value
      ----------- --------  ----- ----- ----- ----- ----- ----------
    1 Stretch                  1     2                       0.96532
    2 Stretch                  1     3                       0.96532
    3 Bend                     2     1     3               103.74015


            XYZ format geometry
            -------------------
     3
 geometry
 O                     0.00000000     0.00000000     0.11920704
 H                     0.75933475     0.00000000    -0.47682817
 H                    -0.75933475     0.00000000    -0.47682817

 ==============================================================================
                                internuclear distances
 ------------------------------------------------------------------------------
       center one      |      center two      | atomic units |  angstroms
 ------------------------------------------------------------------------------
    2 H                |   1 O                |     1.82419  |     0.96532
    3 H                |   1 O                |     1.82419  |     0.96532
 ------------------------------------------------------------------------------
                         number of included internuclear distances:          2
 ==============================================================================



 ==============================================================================
                                 internuclear angles
 ------------------------------------------------------------------------------
        center 1       |       center 2       |       center 3       |  degrees
 ------------------------------------------------------------------------------
    2 H                |   1 O                |   3 H                |   103.74
 ------------------------------------------------------------------------------
                            number of included internuclear angles:          1
 ==============================================================================



                      Basis "ao basis" -> "" (cartesian)
                      -----
  O (Oxygen)
  ----------
            Exponent  Coefficients 
       -------------- ---------------------------------------------------------
  1 S  5.48467170E+03  0.001831
  1 S  8.25234950E+02  0.013950
  1 S  1.88046960E+02  0.068445
  1 S  5.29645000E+01  0.232714
  1 S  1.68975700E+01  0.470193
  1 S  5.79963530E+00  0.358521

  2 S  1.55396160E+01 -0.110778
  2 S  3.59993360E+00 -0.148026
  2 S  1.01376180E+00  1.130767

  3 P  1.55396160E+01  0.070874
  3 P  3.59993360E+00  0.339753
  3 P  1.01376180E+00  0.727159

  4 S  2.70005800E-01  1.000000

  5 P  2.70005800E-01  1.000000

  6 D  8.00000000E-01  1.000000

  H (Hydrogen)
  ------------
            Exponent  Coefficients 
       -------------- ---------------------------------------------------------
  1 S  1.87311370E+01  0.033495
  1 S  2.82539370E+00  0.234727
  1 S  6.40121700E-01  0.813757

  2 S  1.61277800E-01  1.000000

  3 P  1.10000000E+00  1.000000



 Summary of "ao basis" -> "" (cartesian)
 ------------------------------------------------------------------------------
       Tag                 Description            Shells   Functions and Types
 ---------------- ------------------------------  ------  ---------------------
 O                          6-31G**                  6       15   3s2p1d
 H                          6-31G**                  3        5   2s1p



                                 NWChem DFT Module
                                 -----------------


                                    h2o-uv-vis




 Summary of "ao basis" -> "ao basis" (cartesian)
 ------------------------------------------------------------------------------
       Tag                 Description            Shells   Functions and Types
 ---------------- ------------------------------  ------  ---------------------
 O                          6-31G**                  6       15   3s2p1d
 H                          6-31G**                  3        5   2s1p


      Symmetry analysis of basis
      --------------------------

        a1         12
        a2          2
        b1          7
        b2          4

  Caching 1-el integrals 

            General Information
            -------------------
          SCF calculation type: DFT
          Wavefunction type:  closed shell.
          No. of atoms     :     3
          No. of electrons :    10
           Alpha electrons :     5
            Beta electrons :     5
          Charge           :     0
          Spin multiplicity:     1
          Use of symmetry is: off; symmetry adaption is: on 
          Maximum number of iterations:  30
          AO basis - number of functions:    25
                     number of shells:    12
          Convergence on energy requested:  1.00D-06
          Convergence on density requested:  1.00D-05
          Convergence on gradient requested:  5.00D-04

              XC Information
              --------------
                         B3LYP Method XC Potential
                     Hartree-Fock (Exact) Exchange  0.200          
                        Slater Exchange Functional  0.800 local    
                    Becke 1988 Exchange Functional  0.720 non-local
              Lee-Yang-Parr Correlation Functional  0.810          
                  VWN I RPA Correlation Functional  0.190 local    

             Grid Information
             ----------------
          Grid used for XC integration:  medium    
          Radial quadrature: Mura-Knowles        
          Angular quadrature: Lebedev. 
          Tag              B.-S. Rad. Rad. Pts. Rad. Cut. Ang. Pts.
          ---              ---------- --------- --------- ---------
          O                   0.60       49           5.0       434
          H                   0.35       45           6.0       434
          Grid pruning is: on 
          Number of quadrature shells:   139
          Spatial weights used:  Erf1

          Convergence Information
          -----------------------
          Convergence aids based upon iterative change in 
          total energy or number of iterations. 
          Levelshifting, if invoked, occurs when the 
          HOMO/LUMO gap drops below (HL_TOL):  1.00D-02
          DIIS, if invoked, will attempt to extrapolate 
          using up to (NFOCK): 10 stored Fock matrices.

                    Damping( 0%)  Levelshifting(0.5)       DIIS
                  --------------- ------------------- ---------------
          dE  on:    start            ASAP                start   
          dE off:    2 iters         30 iters            30 iters 


      Screening Tolerance Information
      -------------------------------
          Density screening/tol_rho:  1.00D-10
          AO Gaussian exp screening on grid/accAOfunc:  14
          CD Gaussian exp screening on grid/accCDfunc:  20
          XC Gaussian exp screening on grid/accXCfunc:  20
          Schwarz screening/accCoul:  1.00D-08


      Superposition of Atomic Density Guess
      -------------------------------------

 Sum of atomic energies:         -75.75081731

      Non-variational initial energy
      ------------------------------

 Total energy =     -75.904518
 1-e energy   =    -121.613649
 2-e energy   =      36.589689
 HOMO         =      -0.469134
 LUMO         =       0.112377


      Symmetry analysis of molecular orbitals - initial
      -------------------------------------------------

  Numbering of irreducible representations: 

     1 a1          2 a2          3 b1          4 b2      

  Orbital symmetries:

     1 a1          2 a1          3 b1          4 a1          5 b2      
     6 a1          7 b1          8 b1          9 a1         10 a1      
    11 b2         12 b1         13 a1         14 a1         15 a2      

   Time after variat. SCF:      0.8
   Time prior to 1st pass:      0.8

 #quartets = 3.081D+03 #integrals = 2.937D+04 #direct =  0.0% #cached =100.0%


 Integral file          = ./h2o-uv-vis.aoints.0
 Record size in doubles =    65536    No. of integs per rec  =    43688
 Max. records in memory =        2    Max. records in file   = 63333331
 No. of bits per label  =        8    No. of bits per value  =       64


File balance: exchanges=     0  moved=     0  time=   0.0


 Grid_pts file          = ./h2o-uv-vis.gridpts.0
 Record size in doubles =  12289        No. of grid_pts per rec  =   3070
 Max. records in memory =      9        Max. recs in file   = 337750284


           Memory utilization after 1st SCF pass: 
           Heap Space remaining (MW):      155.79           155793022
          Stack Space remaining (MW):      259.92           259918732

   convergence    iter        energy       DeltaE   RMS-Dens  Diis-err    time
 ---------------- ----- ----------------- --------- --------- ---------  ------
 d= 0,ls=0.0,diis     1    -76.3831043473 -8.55D+01  2.99D-02  3.76D-01     7.1
 d= 0,ls=0.0,diis     2    -76.3778000582  5.30D-03  1.50D-02  4.71D-01     7.2
 d= 0,ls=0.0,diis     3    -76.4187590420 -4.10D-02  1.91D-03  1.12D-02     7.4
 d= 0,ls=0.0,diis     4    -76.4197294134 -9.70D-04  1.79D-04  8.76D-05     7.6
 d= 0,ls=0.0,diis     5    -76.4197379181 -8.50D-06  8.11D-06  7.61D-08     7.7
 d= 0,ls=0.0,diis     6    -76.4197379266 -8.52D-09  1.37D-06  1.22D-09     7.9


         Total DFT energy =      -76.419737926632
      One electron energy =     -123.023412055068
           Coulomb energy =       46.835755649125
    Exchange-Corr. energy =       -9.351522903241
 Nuclear repulsion energy =        9.119441382552

 Numeric. integr. density =       10.000001105830

     Total iterative time =      7.2s



                  Occupations of the irreducible representations
                  ----------------------------------------------

                     irrep           alpha         beta
                     --------     --------     --------
                     a1                3.0          3.0
                     a2                0.0          0.0
                     b1                1.0          1.0
                     b2                1.0          1.0


                       DFT Final Molecular Orbital Analysis
                       ------------------------------------

 Vector    1  Occ=2.000000D+00  E=-1.913801D+01  Symmetry=a1
              MO Center= -1.5D-14, -3.0D-15,  1.2D-01, r^2= 1.5D-02
   Bfn.  Coefficient  Atom+Function         Bfn.  Coefficient  Atom+Function  
  ----- ------------  ---------------      ----- ------------  ---------------
     1      0.992881  1 O  s                  2      0.026225  1 O  s          

 Vector    2  Occ=2.000000D+00  E=-9.973144D-01  Symmetry=a1
              MO Center= -8.5D-12, -2.0D-12, -8.7D-02, r^2= 5.0D-01
   Bfn.  Coefficient  Atom+Function         Bfn.  Coefficient  Atom+Function  
  ----- ------------  ---------------      ----- ------------  ---------------
     2      0.467607  1 O  s                  6      0.422149  1 O  s          
     1     -0.210485  1 O  s                 16      0.151985  2 H  s          
    21      0.151985  3 H  s                  5     -0.119188  1 O  pz         
     9     -0.041120  1 O  pz         

 Vector    3  Occ=2.000000D+00  E=-5.149842D-01  Symmetry=b1
              MO Center=  7.6D-12, -3.2D-13, -1.1D-01, r^2= 7.9D-01
   Bfn.  Coefficient  Atom+Function         Bfn.  Coefficient  Atom+Function  
  ----- ------------  ---------------      ----- ------------  ---------------
     3      0.513997  1 O  px                 7      0.247229  1 O  px         
    16      0.244124  2 H  s                 21     -0.244124  3 H  s          
    17      0.157240  2 H  s                 22     -0.157240  3 H  s          
    12     -0.049950  1 O  dxz        

 Vector    4  Occ=2.000000D+00  E=-3.710239D-01  Symmetry=a1
              MO Center=  7.7D-14,  4.7D-26,  1.9D-01, r^2= 7.0D-01
   Bfn.  Coefficient  Atom+Function         Bfn.  Coefficient  Atom+Function  
  ----- ------------  ---------------      ----- ------------  ---------------
     5      0.552652  1 O  pz                 6      0.416361  1 O  s          
     9      0.364042  1 O  pz                 2      0.174171  1 O  s          
    16     -0.144230  2 H  s                 21     -0.144230  3 H  s          
    17     -0.116335  2 H  s                 22     -0.116335  3 H  s          
     1     -0.087630  1 O  s                 15     -0.046206  1 O  dzz        

 Vector    5  Occ=2.000000D+00  E=-2.919627D-01  Symmetry=b2
              MO Center= -6.8D-13,  1.4D-12,  9.4D-02, r^2= 5.9D-01
   Bfn.  Coefficient  Atom+Function         Bfn.  Coefficient  Atom+Function  
  ----- ------------  ---------------      ----- ------------  ---------------
     4      0.643967  1 O  py                 8      0.494567  1 O  py         
    14     -0.050376  1 O  dyz        

 Vector    6  Occ=0.000000D+00  E= 6.534607D-02  Symmetry=a1
              MO Center= -4.4D-11, -6.3D-13, -6.2D-01, r^2= 2.4D+00
   Bfn.  Coefficient  Atom+Function         Bfn.  Coefficient  Atom+Function  
  ----- ------------  ---------------      ----- ------------  ---------------
     6      1.261194  1 O  s                 17     -0.969306  2 H  s          
    22     -0.969306  3 H  s                  9     -0.469997  1 O  pz         
     5     -0.275960  1 O  pz                 2      0.117652  1 O  s          
     1     -0.101134  1 O  s                 16     -0.090305  2 H  s          
    21     -0.090305  3 H  s                 13     -0.057597  1 O  dyy        

 Vector    7  Occ=0.000000D+00  E= 1.512260D-01  Symmetry=b1
              MO Center=  4.3D-11, -9.5D-14, -5.7D-01, r^2= 2.5D+00
   Bfn.  Coefficient  Atom+Function         Bfn.  Coefficient  Atom+Function  
  ----- ------------  ---------------      ----- ------------  ---------------
    17      1.286510  2 H  s                 22     -1.286510  3 H  s          
     7     -0.758485  1 O  px                 3     -0.410623  1 O  px         
    16      0.103599  2 H  s                 21     -0.103599  3 H  s          
    12      0.031835  1 O  dxz        

 Vector    8  Occ=0.000000D+00  E= 7.568468D-01  Symmetry=b1
              MO Center= -6.3D-11, -2.6D-13, -2.6D-01, r^2= 1.7D+00
   Bfn.  Coefficient  Atom+Function         Bfn.  Coefficient  Atom+Function  
  ----- ------------  ---------------      ----- ------------  ---------------
    17     -0.795376  2 H  s                 22      0.795376  3 H  s          
    16      0.770846  2 H  s                 21     -0.770846  3 H  s          
    12     -0.460025  1 O  dxz                3     -0.202259  1 O  px         
     7     -0.166493  1 O  px                20     -0.099565  2 H  pz         
    25      0.099565  3 H  pz                18      0.049540  2 H  px         

 Vector    9  Occ=0.000000D+00  E= 8.055100D-01  Symmetry=a1
              MO Center=  5.8D-11, -4.8D-12, -1.7D-01, r^2= 1.5D+00
   Bfn.  Coefficient  Atom+Function         Bfn.  Coefficient  Atom+Function  
  ----- ------------  ---------------      ----- ------------  ---------------
     5      0.647808  1 O  pz                17     -0.601436  2 H  s          
    22     -0.601436  3 H  s                 16      0.566893  2 H  s          
    21      0.566893  3 H  s                  9     -0.558050  1 O  pz         
    10      0.262150  1 O  dxx                6      0.238810  1 O  s          
    18      0.164396  2 H  px                23     -0.164396  3 H  px         

 Vector   10  Occ=0.000000D+00  E= 8.913501D-01  Symmetry=b2
              MO Center=  6.7D-14, -9.7D-11,  1.1D-01, r^2= 1.1D+00
   Bfn.  Coefficient  Atom+Function         Bfn.  Coefficient  Atom+Function  
  ----- ------------  ---------------      ----- ------------  ---------------
     8     -1.037304  1 O  py                 4      0.959670  1 O  py         
    14      0.027784  1 O  dyz        

 Vector   11  Occ=0.000000D+00  E= 8.935284D-01  Symmetry=a1
              MO Center= -1.5D-11,  9.9D-11,  2.6D-01, r^2= 1.5D+00
   Bfn.  Coefficient  Atom+Function         Bfn.  Coefficient  Atom+Function  
  ----- ------------  ---------------      ----- ------------  ---------------
     6      1.350168  1 O  s                  2     -0.816729  1 O  s          
     9      0.807031  1 O  pz                 5     -0.529853  1 O  pz         
    16      0.502430  2 H  s                 21      0.502430  3 H  s          
    17     -0.381526  2 H  s                 22     -0.381526  3 H  s          
    13     -0.323630  1 O  dyy               15     -0.272322  1 O  dzz        

 Vector   12  Occ=0.000000D+00  E= 1.015566D+00  Symmetry=b1
              MO Center=  1.7D-11,  4.9D-23,  1.2D-01, r^2= 1.6D+00
   Bfn.  Coefficient  Atom+Function         Bfn.  Coefficient  Atom+Function  
  ----- ------------  ---------------      ----- ------------  ---------------
     7      1.795569  1 O  px                17     -0.963662  2 H  s          
    22      0.963662  3 H  s                  3     -0.864461  1 O  px         
    12     -0.157552  1 O  dxz               16     -0.152362  2 H  s          
    21      0.152362  3 H  s                 18      0.144803  2 H  px         
    23      0.144803  3 H  px                20     -0.090197  2 H  pz         

 Vector   13  Occ=0.000000D+00  E= 1.175374D+00  Symmetry=a1
              MO Center=  6.9D-13,  3.9D-12, -3.7D-01, r^2= 1.4D+00
   Bfn.  Coefficient  Atom+Function         Bfn.  Coefficient  Atom+Function  
  ----- ------------  ---------------      ----- ------------  ---------------
     6      3.527322  1 O  s                  2     -1.425462  1 O  s          
     9     -0.990461  1 O  pz                17     -0.770199  2 H  s          
    22     -0.770199  3 H  s                 10     -0.625764  1 O  dxx        
     5      0.351436  1 O  pz                15     -0.333460  1 O  dzz        
    16     -0.326676  2 H  s                 21     -0.326676  3 H  s          

 Vector   14  Occ=0.000000D+00  E= 1.529509D+00  Symmetry=a2
              MO Center= -9.7D-12,  3.0D-13, -1.3D-01, r^2= 7.7D-01
   Bfn.  Coefficient  Atom+Function         Bfn.  Coefficient  Atom+Function  
  ----- ------------  ---------------      ----- ------------  ---------------
    11      1.177966  1 O  dxy               19      0.350698  2 H  py         
    24     -0.350698  3 H  py         

 Vector   15  Occ=0.000000D+00  E= 1.537657D+00  Symmetry=a1
              MO Center= -2.5D-12,  2.7D-13,  2.5D-02, r^2= 8.4D-01
   Bfn.  Coefficient  Atom+Function         Bfn.  Coefficient  Atom+Function  
  ----- ------------  ---------------      ----- ------------  ---------------
     6      0.901910  1 O  s                 15     -0.788597  1 O  dzz        
     9     -0.519667  1 O  pz                 2     -0.323895  1 O  s          
    10      0.255740  1 O  dxx               20      0.248205  2 H  pz         
    25      0.248205  3 H  pz                13      0.245550  1 O  dyy        
    16     -0.237555  2 H  s                 21     -0.237555  3 H  s          

 Vector   16  Occ=0.000000D+00  E= 1.643631D+00  Symmetry=b2
              MO Center=  6.2D-12, -1.3D-13,  2.1D-02, r^2= 7.6D-01
   Bfn.  Coefficient  Atom+Function         Bfn.  Coefficient  Atom+Function  
  ----- ------------  ---------------      ----- ------------  ---------------
    14      1.357157  1 O  dyz               19     -0.300712  2 H  py         
    24     -0.300712  3 H  py                 8      0.205010  1 O  py         

 Vector   17  Occ=0.000000D+00  E= 2.238693D+00  Symmetry=a1
              MO Center=  7.4D-13,  3.3D-13, -8.8D-02, r^2= 8.8D-01
   Bfn.  Coefficient  Atom+Function         Bfn.  Coefficient  Atom+Function  
  ----- ------------  ---------------      ----- ------------  ---------------
     6      1.366014  1 O  s                 13     -1.066546  1 O  dyy        
     9     -0.636988  1 O  pz                16     -0.624252  2 H  s          
    21     -0.624252  3 H  s                  2     -0.567646  1 O  s          
    10      0.521396  1 O  dxx                5      0.208788  1 O  pz         
    18     -0.161324  2 H  px                23      0.161324  3 H  px         

 Vector   18  Occ=0.000000D+00  E= 2.268206D+00  Symmetry=b1
              MO Center= -1.6D-12, -5.7D-14, -4.2D-01, r^2= 1.0D+00
   Bfn.  Coefficient  Atom+Function         Bfn.  Coefficient  Atom+Function  
  ----- ------------  ---------------      ----- ------------  ---------------
    20      0.582475  2 H  pz                25     -0.582475  3 H  pz         
     7     -0.478615  1 O  px                18      0.479651  2 H  px         
    23      0.479651  3 H  px                12     -0.252035  1 O  dxz        
    16      0.103943  2 H  s                 21     -0.103943  3 H  s          
    17      0.103074  2 H  s                 22     -0.103074  3 H  s          

 Vector   19  Occ=0.000000D+00  E= 2.450067D+00  Symmetry=b1
              MO Center=  4.3D-13,  2.3D-15, -1.7D-01, r^2= 9.8D-01
   Bfn.  Coefficient  Atom+Function         Bfn.  Coefficient  Atom+Function  
  ----- ------------  ---------------      ----- ------------  ---------------
    12      1.381886  1 O  dxz               16      0.538420  2 H  s          
    21     -0.538420  3 H  s                  7     -0.482584  1 O  px         
     3      0.340708  1 O  px                18      0.332142  2 H  px         
    23      0.332142  3 H  px                20     -0.232925  2 H  pz         
    25      0.232925  3 H  pz                17     -0.202034  2 H  s          

 Vector   20  Occ=0.000000D+00  E= 2.640993D+00  Symmetry=a2
              MO Center=  1.9D-12,  4.3D-13, -2.1D-01, r^2= 9.8D-01
   Bfn.  Coefficient  Atom+Function         Bfn.  Coefficient  Atom+Function  
  ----- ------------  ---------------      ----- ------------  ---------------
    11      1.525156  1 O  dxy               19     -0.709019  2 H  py         
    24      0.709019  3 H  py         

 Vector   21  Occ=0.000000D+00  E= 2.666765D+00  Symmetry=b2
              MO Center=  2.2D-12,  3.3D-13, -3.0D-01, r^2= 1.0D+00
   Bfn.  Coefficient  Atom+Function         Bfn.  Coefficient  Atom+Function  
  ----- ------------  ---------------      ----- ------------  ---------------
    14      1.275832  1 O  dyz               19      0.762923  2 H  py         
    24      0.762923  3 H  py                 8     -0.417600  1 O  py         

 Vector   22  Occ=0.000000D+00  E= 3.027840D+00  Symmetry=a1
              MO Center=  4.9D-12,  6.3D-14, -2.2D-01, r^2= 1.0D+00
   Bfn.  Coefficient  Atom+Function         Bfn.  Coefficient  Atom+Function  
  ----- ------------  ---------------      ----- ------------  ---------------
    15      0.948120  1 O  dzz               10     -0.749899  1 O  dxx        
    20      0.676568  2 H  pz                25      0.676568  3 H  pz         
     9     -0.461343  1 O  pz                18      0.448041  2 H  px         
    23     -0.448041  3 H  px                 2     -0.181815  1 O  s          
     6      0.131856  1 O  s                 16     -0.090645  2 H  s          

 Vector   23  Occ=0.000000D+00  E= 3.307190D+00  Symmetry=a1
              MO Center=  1.4D-13, -2.4D-13, -3.5D-01, r^2= 1.1D+00
   Bfn.  Coefficient  Atom+Function         Bfn.  Coefficient  Atom+Function  
  ----- ------------  ---------------      ----- ------------  ---------------
     6      2.846460  1 O  s                 13     -1.191333  1 O  dyy        
     9     -0.859565  1 O  pz                16     -0.780979  2 H  s          
    21     -0.780979  3 H  s                 18      0.765113  2 H  px         
    23     -0.765113  3 H  px                17     -0.575369  2 H  s          
    22     -0.575369  3 H  s                 20     -0.458301  2 H  pz         

 Vector   24  Occ=0.000000D+00  E= 3.531537D+00  Symmetry=b1
              MO Center= -4.9D-13, -5.2D-15, -9.9D-02, r^2= 1.2D+00
   Bfn.  Coefficient  Atom+Function         Bfn.  Coefficient  Atom+Function  
  ----- ------------  ---------------      ----- ------------  ---------------
    12      2.569375  1 O  dxz                7     -1.342129  1 O  px         
    16      1.186403  2 H  s                 21     -1.186403  3 H  s          
    18     -0.806744  2 H  px                23     -0.806744  3 H  px         
    20      0.699999  2 H  pz                25     -0.699999  3 H  pz         
     3     -0.692379  1 O  px                17      0.537130  2 H  s          

 Vector   25  Occ=0.000000D+00  E= 3.692901D+00  Symmetry=a1
              MO Center=  9.4D-13,  1.1D-13,  2.3D-01, r^2= 9.1D-01
   Bfn.  Coefficient  Atom+Function         Bfn.  Coefficient  Atom+Function  
  ----- ------------  ---------------      ----- ------------  ---------------
     6      2.599375  1 O  s                 10     -1.938344  1 O  dxx        
    15     -1.577550  1 O  dzz               13     -1.139792  1 O  dyy        
    16      0.658835  2 H  s                 21      0.658835  3 H  s          
    18     -0.486130  2 H  px                23      0.486130  3 H  px         
     5      0.458461  1 O  pz                20      0.429484  2 H  pz         


 center of mass
 --------------
 x =   0.00000000 y =   0.00000000 z =   0.09921406

 moments of inertia (a.u.)
 ------------------
           2.270969023714           0.000000000000           0.000000000000
           0.000000000000           6.421267634361           0.000000000000
           0.000000000000           0.000000000000           4.150298610647

     Multipole analysis of the density
     ---------------------------------

     L   x y z        total         alpha         beta         nuclear
     -   - - -        -----         -----         ----         -------
     0   0 0 0     -0.000000     -5.000000     -5.000000     10.000000

     1   1 0 0      0.000000      0.000000      0.000000      0.000000
     1   0 1 0      0.000000      0.000000      0.000000      0.000000
     1   0 0 1     -0.803751     -0.401875     -0.401875      0.000000

     2   2 0 0     -3.194726     -3.656400     -3.656400      4.118075
     2   1 1 0      0.000000      0.000000      0.000000      0.000000
     2   1 0 1     -0.000000     -0.000000     -0.000000      0.000000
     2   0 2 0     -5.306780     -2.653390     -2.653390      0.000000
     2   0 1 1      0.000000      0.000000      0.000000      0.000000
     2   0 0 2     -4.442836     -3.236337     -3.236337      2.029839


 Parallel integral file used       3 records with       0 large values

                                NWChem TDDFT Module
                                -------------------


                                    h2o-uv-vis


            General Information
            -------------------
           No. of orbitals :      50
            Alpha orbitals :      25
             Beta orbitals :      25
        Alpha frozen cores :       0
         Beta frozen cores :       0
     Alpha frozen virtuals :       0
      Beta frozen virtuals :       0
         Spin multiplicity :       1
    Number of AO functions :      25
        Use of symmetry is : off
      Symmetry adaption is : on 
         Schwarz screening :  0.10D-07

              XC Information
              --------------
                  B3LYP Method XC Potential
              Hartree-Fock (Exact) Exchange   0.20          
                 Slater Exchange Functional   0.80 local    
             Becke 1988 Exchange Functional   0.72 non-local
       Lee-Yang-Parr Correlation Functional   0.81          
           VWN I RPA Correlation Functional   0.19 local    

             TDDFT Information
             -----------------
          Calculation type : TDDFT             
         Wavefunction type : Restricted singlets
          No. of electrons :      10
           Alpha electrons :       5
            Beta electrons :       5
              No. of roots :      10
          Max subspacesize :    6000
            Max iterations :     100
               Target root :       1
           Target symmetry : none
      Symmetry restriction : off
                 Algorithm : Optimal
        Davidson threshold :  0.10D-03

            Memory Information
            ------------------
          Available GA space size is        1559513423 doubles
          Available MA space size is         415822540 doubles
          Length of a trial vector is          100
          Algorithm : Incore multiple tensor contraction
          Estimated peak GA usage is           2454500 doubles
          Estimated peak MA usage is             71000 doubles

   10 smallest eigenvalue differences (eV) 
--------------------------------------------------------
  No. Spin  Occ  Vir  Irrep   E(Occ)    E(Vir)   E(Diff)
--------------------------------------------------------
    1    1    5    6 b2       -0.292     0.065     9.723
    2    1    4    6 a1       -0.371     0.065    11.874
    3    1    5    7 a2       -0.292     0.151    12.060
    4    1    4    7 b1       -0.371     0.151    14.211
    5    1    3    6 b1       -0.515     0.065    15.792
    6    1    3    7 a1       -0.515     0.151    18.129
    7    1    5    8 a2       -0.292     0.757    28.540
    8    1    2    6 a1       -0.997     0.065    28.916
    9    1    5    9 b2       -0.292     0.806    29.864
   10    1    4    8 b1       -0.371     0.757    30.691
--------------------------------------------------------

  Entering Davidson iterations
  Restricted singlet excited states

  Iter   NTrls   NConv    DeltaV     DeltaE      Time   
  ----  ------  ------  ---------  ---------  --------- 
    1     10       0     0.44E+00   0.10+100        1.1
    2     30       0     0.52E-01   0.53E-01        1.7
    3     50       1     0.12E-01   0.86E-03        1.7
    4     68       6     0.24E-02   0.19E-04        1.7
    5     76       8     0.40E-03   0.55E-06        0.9
    6     80      10     0.66E-04   0.13E-07        0.6
  ----  ------  ------  ---------  ---------  --------- 
  Convergence criterion met

  Ground state a1        -76.419737926632 a.u.

  ----------------------------------------------------------------------------
  Root   1 singlet b2             0.294221368 a.u.                8.0062 eV 
  ----------------------------------------------------------------------------
     Transition Moments    X  0.00000   Y  0.26890   Z -0.00000
     Transition Moments   XX  0.00000  XY -0.00000  XZ -0.00000
     Transition Moments   YY -0.00000  YZ -0.08066  ZZ  0.00000
     Dipole Oscillator Strength                    0.0141833591
     Electric Quadrupole                           0.0000000009
     Magnetic Dipole                               0.0000001219
     Total Oscillator Strength                     0.0141834819

     Occ.    5  b2  ---  Virt.    6  a1   1.00002 X
  ----------------------------------------------------------------------------
  Root   2 singlet a2             0.369097480 a.u.               10.0437 eV 
  ----------------------------------------------------------------------------
     Transition Moments    X -0.00000   Y -0.00000   Z  0.00000
     Transition Moments   XX -0.00000  XY -0.24936  XZ  0.00000
     Transition Moments   YY -0.00000  YZ  0.00000  ZZ -0.00000
     Dipole Oscillator Strength                    0.0000000000
     Electric Quadrupole                           0.0000000166
     Magnetic Dipole                               0.0000003348
     Total Oscillator Strength                     0.0000003515

     Occ.    5  b2  ---  Virt.    7  b1   0.99936 X
  ----------------------------------------------------------------------------
  Root   3 singlet a1             0.387064731 a.u.               10.5326 eV 
  ----------------------------------------------------------------------------
     Transition Moments    X -0.00000   Y  0.00000   Z -0.60463
     Transition Moments   XX  0.62351  XY  0.00000  XZ  0.00000
     Transition Moments   YY  0.09429  YZ  0.00000  ZZ  0.45941
     Dipole Oscillator Strength                    0.0943340850
     Electric Quadrupole                           0.0000000227
     Magnetic Dipole                               0.0000000000
     Total Oscillator Strength                     0.0943341077

     Occ.    3  b1  ---  Virt.    7  b1   0.11875 X
     Occ.    4  a1  ---  Virt.    6  a1  -0.99241 X
  ----------------------------------------------------------------------------
  Root   4 singlet b1             0.466992348 a.u.               12.7075 eV 
  ----------------------------------------------------------------------------
     Transition Moments    X  0.47326   Y  0.00000   Z -0.00000
     Transition Moments   XX  0.00000  XY  0.00000  XZ -0.58528
     Transition Moments   YY  0.00000  YZ  0.00000  ZZ  0.00000
     Dipole Oscillator Strength                    0.0697299030
     Electric Quadrupole                           0.0000001858
     Magnetic Dipole                               0.0000005783
     Total Oscillator Strength                     0.0697306670

     Occ.    3  b1  ---  Virt.    6  a1  -0.19330 X
     Occ.    4  a1  ---  Virt.    7  b1   0.98016 X
  ----------------------------------------------------------------------------
  Root   5 singlet b1             0.533227682 a.u.               14.5099 eV 
  ----------------------------------------------------------------------------
     Transition Moments    X -1.05196   Y  0.00000   Z  0.00000
     Transition Moments   XX -0.00000  XY  0.00000  XZ  0.96330
     Transition Moments   YY -0.00000  YZ  0.00000  ZZ -0.00000
     Dipole Oscillator Strength                    0.3933833488
     Electric Quadrupole                           0.0000007492
     Magnetic Dipole                               0.0000000220
     Total Oscillator Strength                     0.3933841201

     Occ.    3  b1  ---  Virt.    6  a1  -0.98069 X
     Occ.    4  a1  ---  Virt.    7  b1  -0.19253 X
  ----------------------------------------------------------------------------
  Root   6 singlet a1             0.652738207 a.u.               17.7619 eV 
  ----------------------------------------------------------------------------
     Transition Moments    X  0.00000   Y -0.00000   Z  0.68471
     Transition Moments   XX -1.92244  XY  0.00000  XZ -0.00000
     Transition Moments   YY -0.09170  YZ -0.00000  ZZ -0.58365
     Dipole Oscillator Strength                    0.2040140574
     Electric Quadrupole                           0.0000013294
     Magnetic Dipole                               0.0000000000
     Total Oscillator Strength                     0.2040153869

     Occ.    2  a1  ---  Virt.    6  a1   0.07438 X
     Occ.    3  b1  ---  Virt.    7  b1   0.97814 X
     Occ.    4  a1  ---  Virt.    6  a1   0.11134 X
     Occ.    4  a1  ---  Virt.    9  a1   0.08439 X
     Occ.    4  a1  ---  Virt.   11  a1  -0.06625 X
     Occ.    5  b2  ---  Virt.   10  b2   0.12788 X
  ----------------------------------------------------------------------------
  Root   7 singlet a2             0.962204813 a.u.               26.1829 eV 
  ----------------------------------------------------------------------------
     Transition Moments    X  0.00000   Y  0.00000   Z  0.00000
     Transition Moments   XX -0.00000  XY -0.41976  XZ -0.00000
     Transition Moments   YY -0.00000  YZ  0.00000  ZZ  0.00000
     Dipole Oscillator Strength                    0.0000000000
     Electric Quadrupole                           0.0000008359
     Magnetic Dipole                               0.0000004701
     Total Oscillator Strength                     0.0000013060

     Occ.    5  b2  ---  Virt.    8  b1  -0.99958 X
  ----------------------------------------------------------------------------
  Root   8 singlet b2             1.009123713 a.u.               27.4597 eV 
  ----------------------------------------------------------------------------
     Transition Moments    X -0.00000   Y -0.39330   Z  0.00000
     Transition Moments   XX -0.00000  XY -0.00000  XZ  0.00000
     Transition Moments   YY  0.00000  YZ -0.33633  ZZ -0.00000
     Dipole Oscillator Strength                    0.1040647005
     Electric Quadrupole                           0.0000006190
     Magnetic Dipole                               0.0000002927
     Total Oscillator Strength                     0.1040656122

     Occ.    5  b2  ---  Virt.    9  a1  -0.97515 X
     Occ.    5  b2  ---  Virt.   11  a1   0.21394 X
  ----------------------------------------------------------------------------
  Root   9 singlet a1             1.018624970 a.u.               27.7182 eV 
  ----------------------------------------------------------------------------
     Transition Moments    X  0.00000   Y  0.00000   Z  0.22039
     Transition Moments   XX -0.78607  XY -0.00000  XZ -0.00000
     Transition Moments   YY  0.18701  YZ  0.00000  ZZ -0.47718
     Dipole Oscillator Strength                    0.0329845593
     Electric Quadrupole                           0.0000013915
     Magnetic Dipole                               0.0000000000
     Total Oscillator Strength                     0.0329859508

     Occ.    2  a1  ---  Virt.    6  a1  -0.94922 X
     Occ.    4  a1  ---  Virt.    9  a1   0.12842 X
     Occ.    5  b2  ---  Virt.   10  b2   0.27970 X
  ----------------------------------------------------------------------------
  Root  10 singlet b1             1.074907911 a.u.               29.2497 eV 
  ----------------------------------------------------------------------------
     Transition Moments    X -0.44638   Y -0.00000   Z  0.00000
     Transition Moments   XX  0.00000  XY  0.00000  XZ  0.08748
     Transition Moments   YY -0.00000  YZ -0.00000  ZZ  0.00000
     Dipole Oscillator Strength                    0.1427888057
     Electric Quadrupole                           0.0000000506
     Magnetic Dipole                               0.0000022929
     Total Oscillator Strength                     0.1427911492

     Occ.    2  a1  ---  Virt.    7  b1   0.54450 X
     Occ.    3  b1  ---  Virt.    9  a1  -0.16427 X
     Occ.    3  b1  ---  Virt.   11  a1  -0.06638 X
     Occ.    4  a1  ---  Virt.    8  b1  -0.81845 X

              Target root =      1
          Target symmetry = none
      Ground state energy =    -76.419737926632
        Excitation energy =      0.294221368367
     Excited state energy =    -76.125516558266

  stored tddft:energy   -76.125516558265602     

 Task  times  cpu:       19.5s     wall:       15.7s


                                NWChem Input Module
                                -------------------


 Summary of allocated global arrays
-----------------------------------
  No active global arrays



                         GA Statistics for process    0
                         ------------------------------

       create   destroy   get      put      acc     scatter   gather  read&inc
calls: 1005     1005     1.67e+05 3.96e+04 8.38e+04  420        0      235     
number of processes/call -3.07e+13 1.75e+13 -2.64e+13 0.00e+00 0.00e+00
bytes total:             7.54e+07 9.96e+06 5.22e+07 1.80e+03 0.00e+00 1.88e+03
bytes remote:            9.31e+06 8.71e+05 3.38e+07 -3.20e+03 0.00e+00 0.00e+00
Max memory consumed for GA by this process: 5247440 bytes

MA_summarize_allocated_blocks: starting scan ...
heap block 'gridpts', handle 118, address 0x55d456816d68:
	type of elements:		double precision
	number of elements:		103882583
	address of client space:	0x55d456816dc0
	index for client space:		10351251
	total number of bytes:		831060760
MA_summarize_allocated_blocks: scan completed: 1 heap block, 0 stack blocks
MA usage statistics:

	allocation statistics:
					      heap	     stack
					      ----	     -----
	current number of blocks	         1	         0
	maximum number of blocks	        23	        53
	current total bytes		 831060760	         0
	maximum total bytes		 833007872	  22510840
	maximum total K-bytes		    833008	     22511
	maximum total M-bytes		       834	        23


                                     CITATION
                                     --------
                Please cite the following reference when publishing
                           results obtained with NWChem:

                 M. Valiev, E.J. Bylaska, N. Govind, K. Kowalski,
              T.P. Straatsma, H.J.J. van Dam, D. Wang, J. Nieplocha,
                        E. Apra, T.L. Windus, W.A. de Jong
                 "NWChem: a comprehensive and scalable open-source
                  solution for large scale molecular simulations"
                      Comput. Phys. Commun. 181, 1477 (2010)
                           doi:10.1016/j.cpc.2010.04.018

                                      AUTHORS
                                      -------
          E. Apra, E. J. Bylaska, W. A. de Jong, N. Govind, K. Kowalski,
       T. P. Straatsma, M. Valiev, H. J. J. van Dam, D. Wang, T. L. Windus,
        J. Hammond, J. Autschbach, K. Bhaskaran-Nair, J. Brabec, K. Lopata,
    S. A. Fischer, S. Krishnamoorthy, M. Jacquelin, W. Ma, M. Klemm, O. Villa,
      Y. Chen, V. Anisimov, F. Aquino, S. Hirata, M. T. Hackler, V. Konjkov,
            D. Mejia-Rodriguez, T. Risthaus, M. Malagoli, A. Marenich,
   A. Otero-de-la-Roza, J. Mullin, P. Nichols, R. Peverati, J. Pittner, Y. Zhao,
        P.-D. Fan, A. Fonari, M. J. Williamson, R. J. Harrison, J. R. Rehr,
      M. Dupuis, D. Silverstein, D. M. A. Smith, J. Nieplocha, V. Tipparaju,
    M. Krishnan, B. E. Van Kuiken, A. Vazquez-Mayagoitia, L. Jensen, M. Swart,
      Q. Wu, T. Van Voorhis, A. A. Auer, M. Nooijen, L. D. Crosby, E. Brown,
      G. Cisneros, G. I. Fann, H. Fruchtl, J. Garza, K. Hirao, R. A. Kendall,
      J. A. Nichols, K. Tsemekhman, K. Wolinski, J. Anchell, D. E. Bernholdt,
      P. Borowski, T. Clark, D. Clerc, H. Dachsel, M. J. O. Deegan, K. Dyall,
    D. Elwood, E. Glendening, M. Gutowski, A. C. Hess, J. Jaffe, B. G. Johnson,
     J. Ju, R. Kobayashi, R. Kutteh, Z. Lin, R. Littlefield, X. Long, B. Meng,
      T. Nakajima, S. Niu, L. Pollack, M. Rosing, K. Glaesemann, G. Sandrone,
      M. Stave, H. Taylor, G. Thomas, J. H. van Lenthe, A. T. Wong, Z. Zhang.
       Aggregate GFloating-point ops:   25.45    
        Aggregate GFLOPS (Real_time):   1.619    
        Aggregate GFLOPS (Proc_time):   1.301    
                    Average   GFLOPS:  0.5398    
                    Max       GFLOPS:   1.150    
                    Min       GFLOPS:  0.2080    

 Total times  cpu:       19.5s     wall:       15.7s
