 argument  1 = co_core.nw
  NWChem w/ OpenMP: maximum threads =    4



============================== echo of input deck ==============================
echo

start co_core

title co_core

memory 1000 mb

geometry units angstrom noautosym nocenter
 O 0       0        0
 C 0       0.00     1.15
end

basis
  * library aug-cc-pvdz
end

dft
  xc b3lyp
end
task dft optimize

dft
  xc beckehandh
end
task dft

tddft
  cis
  ecut -15
  nroots 30
  notriplet
  thresh 1e-04
end
task tddft
================================================================================


                                         
                                         


              Northwest Computational Chemistry Package (NWChem) 6.8
              ------------------------------------------------------


                    Environmental Molecular Sciences Laboratory
                       Pacific Northwest National Laboratory
                                Richland, WA 99352

                              Copyright (c) 1994-2018
                       Pacific Northwest National Laboratory
                            Battelle Memorial Institute

             NWChem is an open-source computational chemistry package
                        distributed under the terms of the
                      Educational Community License (ECL) 2.0
             A copy of the license is included with this distribution
                              in the LICENSE.TXT file

                                  ACKNOWLEDGMENT
                                  --------------

            This software and its documentation were developed at the
            EMSL at Pacific Northwest National Laboratory, a multiprogram
            national laboratory, operated for the U.S. Department of Energy
            by Battelle under Contract Number DE-AC05-76RL01830. Support
            for this work was provided by the Department of Energy Office
            of Biological and Environmental Research, Office of Basic
            Energy Sciences, and the Office of Advanced Scientific Computing.


           Job information
           ---------------

    hostname        = durian
    program         = /home/edo/nwchem/nwchem.last/bin/LINUX64/nwchem
    date            = Wed Jul 17 19:04:53 2019

    compiled        = Wed_Jul_17_09:24:12_2019
    source          = /home/edo/nwchem/nwchem.last
    nwchem branch   = Development
    nwchem revision = nwchem_on_git-980-g32d152c54
    ga revision     = 5.7.0
    use scalapack   = T
    input           = co_core.nw
    prefix          = co_core.
    data base       = ./co_core.db
    status          = startup
    nproc           =        3
    time left       =     -1s



           Memory information
           ------------------

    heap     =   32767998 doubles =    250.0 Mbytes
    stack    =   32767995 doubles =    250.0 Mbytes
    global   =   65536000 doubles =    500.0 Mbytes (distinct from heap & stack)
    total    =  131071993 doubles =   1000.0 Mbytes
    verify   = yes
    hardfail = no 


           Directory information
           ---------------------

  0 permanent = .
  0 scratch   = .




                                NWChem Input Module
                                -------------------


                                      co_core
                                      -------

 Scaling coordinates for geometry "geometry" by  1.889725989
 (inverse scale =  0.529177249)


          ------
          auto-z
          ------
  no constraints, skipping    0.0000000000000000     
  no constraints, skipping    0.0000000000000000     


                             Geometry "geometry" -> ""
                             -------------------------

 Output coordinates in angstroms (scale by  1.889725989 to convert to a.u.)

  No.       Tag          Charge          X              Y              Z
 ---- ---------------- ---------- -------------- -------------- --------------
    1 O                    8.0000     0.00000000     0.00000000     0.00000000
    2 C                    6.0000     0.00000000     0.00000000     1.15000000

      Atomic Mass 
      ----------- 

      O                 15.994910
      C                 12.000000


 Effective nuclear repulsion energy (a.u.)      22.0873982191

            Nuclear Dipole moment (a.u.) 
            ----------------------------
        X                 Y               Z
 ---------------- ---------------- ----------------
     0.0000000000     0.0000000000    13.0391093212



                                Z-matrix (autoz)
                                -------- 

 Units are Angstrom for bonds and degrees for angles

      Type          Name      I     J     K     L     M      Value
      ----------- --------  ----- ----- ----- ----- ----- ----------
    1 Stretch                  1     2                       1.15000


            XYZ format geometry
            -------------------
     2
 geometry
 O                     0.00000000     0.00000000     0.00000000
 C                     0.00000000     0.00000000     1.15000000

 ==============================================================================
                                internuclear distances
 ------------------------------------------------------------------------------
       center one      |      center two      | atomic units |  angstroms
 ------------------------------------------------------------------------------
    2 C                |   1 O                |     2.17318  |     1.15000
 ------------------------------------------------------------------------------
                         number of included internuclear distances:          1
 ==============================================================================





 Summary of "ao basis" -> "" (cartesian)
 ------------------------------------------------------------------------------
       Tag                 Description            Shells   Functions and Types
 ---------------- ------------------------------  ------  ---------------------
 *                        aug-cc-pvdz                 on all atoms 




                           NWChem Geometry Optimization
                           ----------------------------




                                      co_core


  no constraints, skipping    0.0000000000000000     
 maximum gradient threshold         (gmax) =   0.000450
 rms gradient threshold             (grms) =   0.000300
 maximum cartesian step threshold   (xmax) =   0.001800
 rms cartesian step threshold       (xrms) =   0.001200
 fixed trust radius                (trust) =   0.300000
 maximum step size to saddle      (sadstp) =   0.100000
 energy precision                  (eprec) =   5.0D-06
 maximum number of steps          (nptopt) =   20
 initial hessian option           (inhess) =    0
 line search option               (linopt) =    1
 hessian update option            (modupd) =    1
 saddle point option              (modsad) =    0
 initial eigen-mode to follow     (moddir) =    0
 initial variable to follow       (vardir) =    0
 follow first negative mode     (firstneg) =    T
 apply conjugacy                    (opcg) =    F
 source of zmatrix                         =   autoz   


          -------------------
          Energy Minimization
          -------------------


 Names of Z-matrix variables 
    1         

 Variables with the same non-blank name are constrained to be equal


 Using old Hessian from previous optimization

          --------
          Step   0
          --------


                         Geometry "geometry" -> "geometry"
                         ---------------------------------

 Output coordinates in angstroms (scale by  1.889725989 to convert to a.u.)

  No.       Tag          Charge          X              Y              Z
 ---- ---------------- ---------- -------------- -------------- --------------
    1 O                    8.0000     0.00000000     0.00000000     0.00000000
    2 C                    6.0000     0.00000000     0.00000000     1.15000000

      Atomic Mass 
      ----------- 

      O                 15.994910
      C                 12.000000


 Effective nuclear repulsion energy (a.u.)      22.0873982191

            Nuclear Dipole moment (a.u.) 
            ----------------------------
        X                 Y               Z
 ---------------- ---------------- ----------------
     0.0000000000     0.0000000000    13.0391093212


                                 NWChem DFT Module
                                 -----------------


                                      co_core


                      Basis "ao basis" -> "ao basis" (cartesian)
                      -----
  O (Oxygen)
  ----------
            Exponent  Coefficients 
       -------------- ---------------------------------------------------------
  1 S  1.17200000E+04  0.000710
  1 S  1.75900000E+03  0.005470
  1 S  4.00800000E+02  0.027837
  1 S  1.13700000E+02  0.104800
  1 S  3.70300000E+01  0.283062
  1 S  1.32700000E+01  0.448719
  1 S  5.02500000E+00  0.270952
  1 S  1.01300000E+00  0.015458

  2 S  1.17200000E+04 -0.000160
  2 S  1.75900000E+03 -0.001263
  2 S  4.00800000E+02 -0.006267
  2 S  1.13700000E+02 -0.025716
  2 S  3.70300000E+01 -0.070924
  2 S  1.32700000E+01 -0.165411
  2 S  5.02500000E+00 -0.116955
  2 S  1.01300000E+00  0.557368

  3 S  3.02300000E-01  1.000000

  4 S  7.89600000E-02  1.000000

  5 P  1.77000000E+01  0.043018
  5 P  3.85400000E+00  0.228913
  5 P  1.04600000E+00  0.508728

  6 P  2.75300000E-01  1.000000

  7 P  6.85600000E-02  1.000000

  8 D  1.18500000E+00  1.000000

  9 D  3.32000000E-01  1.000000

  C (Carbon)
  ----------
            Exponent  Coefficients 
       -------------- ---------------------------------------------------------
  1 S  6.66500000E+03  0.000692
  1 S  1.00000000E+03  0.005329
  1 S  2.28000000E+02  0.027077
  1 S  6.47100000E+01  0.101718
  1 S  2.10600000E+01  0.274740
  1 S  7.49500000E+00  0.448564
  1 S  2.79700000E+00  0.285074
  1 S  5.21500000E-01  0.015204

  2 S  6.66500000E+03 -0.000146
  2 S  1.00000000E+03 -0.001154
  2 S  2.28000000E+02 -0.005725
  2 S  6.47100000E+01 -0.023312
  2 S  2.10600000E+01 -0.063955
  2 S  7.49500000E+00 -0.149981
  2 S  2.79700000E+00 -0.127262
  2 S  5.21500000E-01  0.544529

  3 S  1.59600000E-01  1.000000

  4 S  4.69000000E-02  1.000000

  5 P  9.43900000E+00  0.038109
  5 P  2.00200000E+00  0.209480
  5 P  5.45600000E-01  0.508557

  6 P  1.51700000E-01  1.000000

  7 P  4.04100000E-02  1.000000

  8 D  5.50000000E-01  1.000000

  9 D  1.51000000E-01  1.000000



 Summary of "ao basis" -> "ao basis" (cartesian)
 ------------------------------------------------------------------------------
       Tag                 Description            Shells   Functions and Types
 ---------------- ------------------------------  ------  ---------------------
 O                        aug-cc-pvdz                9       25   4s3p2d
 C                        aug-cc-pvdz                9       25   4s3p2d




 Summary of "ao basis" -> "ao basis" (cartesian)
 ------------------------------------------------------------------------------
       Tag                 Description            Shells   Functions and Types
 ---------------- ------------------------------  ------  ---------------------
 O                        aug-cc-pvdz                9       25   4s3p2d
 C                        aug-cc-pvdz                9       25   4s3p2d


  Caching 1-el integrals 

            General Information
            -------------------
          SCF calculation type: DFT
          Wavefunction type:  closed shell.
          No. of atoms     :     2
          No. of electrons :    14
           Alpha electrons :     7
            Beta electrons :     7
          Charge           :     0
          Spin multiplicity:     1
          Use of symmetry is: off; symmetry adaption is: off
          Maximum number of iterations:  30
          AO basis - number of functions:    50
                     number of shells:    18
          Convergence on energy requested:  1.00D-06
          Convergence on density requested:  1.00D-05
          Convergence on gradient requested:  5.00D-04

              XC Information
              --------------
                         B3LYP Method XC Potential
                     Hartree-Fock (Exact) Exchange  0.200          
                        Slater Exchange Functional  0.800 local    
                    Becke 1988 Exchange Functional  0.720 non-local
              Lee-Yang-Parr Correlation Functional  0.810          
                  VWN I RPA Correlation Functional  0.190 local    

             Grid Information
             ----------------
          Grid used for XC integration:  medium    
          Radial quadrature: Mura-Knowles        
          Angular quadrature: Lebedev. 
          Tag              B.-S. Rad. Rad. Pts. Rad. Cut. Ang. Pts.
          ---              ---------- --------- --------- ---------
          O                   0.60       49           9.0       434
          C                   0.70       49           8.0       434
          Grid pruning is: on 
          Number of quadrature shells:    98
          Spatial weights used:  Erf1

          Convergence Information
          -----------------------
          Convergence aids based upon iterative change in 
          total energy or number of iterations. 
          Levelshifting, if invoked, occurs when the 
          HOMO/LUMO gap drops below (HL_TOL):  1.00D-02
          DIIS, if invoked, will attempt to extrapolate 
          using up to (NFOCK): 10 stored Fock matrices.

                    Damping( 0%)  Levelshifting(0.5)       DIIS
                  --------------- ------------------- ---------------
          dE  on:    start            ASAP                start   
          dE off:    2 iters         30 iters            30 iters 


      Screening Tolerance Information
      -------------------------------
          Density screening/tol_rho:  1.00D-10
          AO Gaussian exp screening on grid/accAOfunc:  14
          CD Gaussian exp screening on grid/accCDfunc:  20
          XC Gaussian exp screening on grid/accXCfunc:  20
          Schwarz screening/accCoul:  1.00D-08


      Superposition of Atomic Density Guess
      -------------------------------------

 Sum of atomic energies:        -112.43383664

      Non-variational initial energy
      ------------------------------

 Total energy =    -112.803526
 1-e energy   =    -196.794029
 2-e energy   =      61.903105
 HOMO         =      -0.389942
 LUMO         =       0.014624

   Time after variat. SCF:      1.4
   Time prior to 1st pass:      1.4

 Integral file          = ./co_core.aoints.0
 Record size in doubles =    65536    No. of integs per rec  =    43688
 Max. records in memory =       10    Max. records in file   = 63333331
 No. of bits per label  =        8    No. of bits per value  =       64


 #quartets = 1.471D+04 #integrals = 2.327D+05 #direct =  0.0% #cached =100.0%


File balance: exchanges=     0  moved=     0  time=   0.0


 Grid_pts file          = ./co_core.gridpts.0
 Record size in doubles =  12289        No. of grid_pts per rec  =   3070
 Max. records in memory =      7        Max. recs in file   = 337750284


           Memory utilization after 1st SCF pass: 
           Heap Space remaining (MW):       19.11            19112414
          Stack Space remaining (MW):       32.77            32767628

   convergence    iter        energy       DeltaE   RMS-Dens  Diis-err    time
 ---------------- ----- ----------------- --------- --------- ---------  ------
 d= 0,ls=0.0,diis     1   -113.2758892423 -1.35D+02  2.38D-02  5.38D-01     6.5
 d= 0,ls=0.0,diis     2   -113.0505943009  2.25D-01  1.35D-02  2.97D+00     7.4
 d= 0,ls=0.0,diis     3   -113.3304976201 -2.80D-01  1.60D-03  2.35D-02     8.3
 d= 0,ls=0.0,diis     4   -113.3323196613 -1.82D-03  5.33D-04  1.79D-03     8.8
 d= 0,ls=0.0,diis     5   -113.3325231760 -2.04D-04  2.22D-05  2.63D-06     9.6
 d= 0,ls=0.0,diis     6   -113.3325234690 -2.93D-07  3.09D-06  4.65D-08    10.2


         Total DFT energy =     -113.332523468996
      One electron energy =     -197.419891391805
           Coulomb energy =       75.855954916475
    Exchange-Corr. energy =      -13.855985212783
 Nuclear repulsion energy =       22.087398219118

 Numeric. integr. density =       14.000000978226

     Total iterative time =      8.8s



                       DFT Final Molecular Orbital Analysis
                       ------------------------------------

 Vector    1  Occ=2.000000D+00  E=-1.926359D+01
              MO Center=  1.5D-14, -9.8D-15,  9.4D-05, r^2= 1.5D-02
   Bfn.  Coefficient  Atom+Function         Bfn.  Coefficient  Atom+Function  
  ----- ------------  ---------------      ----- ------------  ---------------
     1      1.004379  1 O  s          

 Vector    2  Occ=2.000000D+00  E=-1.031957D+01
              MO Center= -1.6D-14,  3.5D-14,  1.1D+00, r^2= 2.8D-02
   Bfn.  Coefficient  Atom+Function         Bfn.  Coefficient  Atom+Function  
  ----- ------------  ---------------      ----- ------------  ---------------
    26      1.004457  2 C  s          

 Vector    3  Occ=2.000000D+00  E=-1.167308D+00
              MO Center=  1.1D-11, -7.1D-12,  3.2D-01, r^2= 4.2D-01
   Bfn.  Coefficient  Atom+Function         Bfn.  Coefficient  Atom+Function  
  ----- ------------  ---------------      ----- ------------  ---------------
     2      0.398144  1 O  s                  3      0.354553  1 O  s          
    32     -0.230069  2 C  pz                27      0.218922  2 C  s          
    28      0.217016  2 C  s                  7      0.179227  1 O  pz         
    25     -0.065655  1 O  dzz               35     -0.055191  2 C  pz         
    44      0.031702  2 C  dzz               10     -0.028584  1 O  pz         

 Vector    4  Occ=2.000000D+00  E=-5.867610D-01
              MO Center= -6.2D-11,  6.4D-11,  2.6D-02, r^2= 8.1D-01
   Bfn.  Coefficient  Atom+Function         Bfn.  Coefficient  Atom+Function  
  ----- ------------  ---------------      ----- ------------  ---------------
     7      0.483219  1 O  pz                 3     -0.438150  1 O  s          
    28      0.311515  2 C  s                 27      0.287564  2 C  s          
     2     -0.241260  1 O  s                 10      0.197762  1 O  pz         
    32     -0.126108  2 C  pz                 4     -0.085036  1 O  s          
    29      0.050620  2 C  s                 50     -0.048185  2 C  dzz        

 Vector    5  Occ=2.000000D+00  E=-4.774415D-01
              MO Center=  6.4D-12,  5.3D-12,  3.0D-01, r^2= 8.1D-01
   Bfn.  Coefficient  Atom+Function         Bfn.  Coefficient  Atom+Function  
  ----- ------------  ---------------      ----- ------------  ---------------
     6      0.397941  1 O  py                 5      0.392604  1 O  px         
     9      0.231667  1 O  py                31      0.231061  2 C  py         
     8      0.228560  1 O  px                30      0.227962  2 C  px         
    34      0.081451  2 C  py                33      0.080359  2 C  px         
    43     -0.060186  2 C  dyz               41     -0.059379  2 C  dxz        

 Vector    6  Occ=2.000000D+00  E=-4.774415D-01
              MO Center= -2.8D-11,  3.0D-11,  3.0D-01, r^2= 8.1D-01
   Bfn.  Coefficient  Atom+Function         Bfn.  Coefficient  Atom+Function  
  ----- ------------  ---------------      ----- ------------  ---------------
     5      0.397941  1 O  px                 6     -0.392604  1 O  py         
     8      0.231667  1 O  px                30      0.231061  2 C  px         
     9     -0.228560  1 O  py                31     -0.227962  2 C  py         
    33      0.081451  2 C  px                34     -0.080359  2 C  py         
    41     -0.060186  2 C  dxz               43      0.059379  2 C  dyz        

 Vector    7  Occ=2.000000D+00  E=-3.883241D-01
              MO Center=  6.6D-11, -1.1D-10,  1.4D+00, r^2= 1.1D+00
   Bfn.  Coefficient  Atom+Function         Bfn.  Coefficient  Atom+Function  
  ----- ------------  ---------------      ----- ------------  ---------------
    32      0.469432  2 C  pz                28      0.333697  2 C  s          
     7     -0.286643  1 O  pz                27      0.273393  2 C  s          
    35      0.251718  2 C  pz                 4      0.159185  1 O  s          
     3      0.079801  1 O  s                 25      0.058526  1 O  dzz        
    10     -0.050322  1 O  pz                44     -0.046131  2 C  dzz        

 Vector    8  Occ=0.000000D+00  E=-4.864531D-02
              MO Center=  4.8D-12,  7.8D-13,  1.0D+00, r^2= 2.1D+00
   Bfn.  Coefficient  Atom+Function         Bfn.  Coefficient  Atom+Function  
  ----- ------------  ---------------      ----- ------------  ---------------
    30      0.376471  2 C  px                31      0.376619  2 C  py         
    33      0.375740  2 C  px                34      0.375887  2 C  py         
     5     -0.274866  1 O  px                 6     -0.274973  1 O  py         
    36      0.268180  2 C  px                37      0.268285  2 C  py         
     8     -0.241995  1 O  px                 9     -0.242089  1 O  py         

 Vector    9  Occ=0.000000D+00  E=-4.864531D-02
              MO Center= -8.0D-10,  8.0D-10,  1.0D+00, r^2= 2.1D+00
   Bfn.  Coefficient  Atom+Function         Bfn.  Coefficient  Atom+Function  
  ----- ------------  ---------------      ----- ------------  ---------------
    30      0.376619  2 C  px                31     -0.376471  2 C  py         
    33      0.375887  2 C  px                34     -0.375740  2 C  py         
     5     -0.274973  1 O  px                 6      0.274866  1 O  py         
    36      0.268285  2 C  px                37     -0.268180  2 C  py         
     8     -0.242089  1 O  px                 9      0.241995  1 O  py         

 Vector   10  Occ=0.000000D+00  E= 2.661142D-02
              MO Center= -6.1D-08,  6.1D-08, -2.4D-01, r^2= 8.1D+00
   Bfn.  Coefficient  Atom+Function         Bfn.  Coefficient  Atom+Function  
  ----- ------------  ---------------      ----- ------------  ---------------
    29      2.673941  2 C  s                  4     -2.304272  1 O  s          
    38     -0.874290  2 C  pz                35     -0.665011  2 C  pz         
    13     -0.608097  1 O  pz                28      0.517184  2 C  s          
     3     -0.504394  1 O  s                 10     -0.170716  1 O  pz         
    32     -0.133262  2 C  pz                50      0.110689  2 C  dzz        

 Vector   11  Occ=0.000000D+00  E= 5.144727D-02
              MO Center=  1.6D-08, -1.2D-08,  2.7D+00, r^2= 7.6D+00
   Bfn.  Coefficient  Atom+Function         Bfn.  Coefficient  Atom+Function  
  ----- ------------  ---------------      ----- ------------  ---------------
    38      1.193026  2 C  pz                 4      0.706514  1 O  s          
    29      0.587401  2 C  s                 28     -0.432063  2 C  s          
    50     -0.243991  2 C  dzz               45     -0.191859  2 C  dxx        
    48     -0.191859  2 C  dyy               27     -0.169918  2 C  s          
    32     -0.098853  2 C  pz                 3      0.079699  1 O  s          

 Vector   12  Occ=0.000000D+00  E= 6.356457D-02
              MO Center=  5.2D-08, -5.2D-08,  1.2D+00, r^2= 9.5D+00
   Bfn.  Coefficient  Atom+Function         Bfn.  Coefficient  Atom+Function  
  ----- ------------  ---------------      ----- ------------  ---------------
    36      0.823280  2 C  px                37     -0.823301  2 C  py         
    33     -0.269396  2 C  px                34      0.269403  2 C  py         
    30     -0.208914  2 C  px                31      0.208920  2 C  py         
     8      0.053902  1 O  px                 9     -0.053904  1 O  py         
    47     -0.051003  2 C  dxz               49      0.051004  2 C  dyz        

 Vector   13  Occ=0.000000D+00  E= 6.356457D-02
              MO Center= -2.0D-09, -2.0D-09,  1.2D+00, r^2= 9.5D+00
   Bfn.  Coefficient  Atom+Function         Bfn.  Coefficient  Atom+Function  
  ----- ------------  ---------------      ----- ------------  ---------------
    36      0.823301  2 C  px                37      0.823280  2 C  py         
    33     -0.269403  2 C  px                34     -0.269396  2 C  py         
    30     -0.208920  2 C  px                31     -0.208914  2 C  py         
     8      0.053904  1 O  px                 9      0.053902  1 O  py         
    47     -0.051004  2 C  dxz               49     -0.051003  2 C  dyz        

 Vector   14  Occ=0.000000D+00  E= 1.360365D-01
              MO Center= -2.6D-09,  2.9D-09, -4.4D-01, r^2= 7.4D+00
   Bfn.  Coefficient  Atom+Function         Bfn.  Coefficient  Atom+Function  
  ----- ------------  ---------------      ----- ------------  ---------------
    13      2.507540  1 O  pz                 4      2.303718  1 O  s          
    28     -1.929835  2 C  s                 38     -0.625878  2 C  pz         
    50     -0.618641  2 C  dzz               35      0.555078  2 C  pz         
    29     -0.502685  2 C  s                 45     -0.405037  2 C  dxx        
    48     -0.405037  2 C  dyy                3      0.291665  1 O  s          

 Vector   15  Occ=0.000000D+00  E= 1.681027D-01
              MO Center= -8.9D-11, -9.8D-11,  2.0D-01, r^2= 8.7D+00
   Bfn.  Coefficient  Atom+Function         Bfn.  Coefficient  Atom+Function  
  ----- ------------  ---------------      ----- ------------  ---------------
    11      1.500781  1 O  px                12      1.500752  1 O  py         
    36     -0.996271  2 C  px                37     -0.996251  2 C  py         
    47      0.266293  2 C  dxz               49      0.266288  2 C  dyz        
    33     -0.204706  2 C  px                34     -0.204702  2 C  py         
     5     -0.159883  1 O  px                 6     -0.159880  1 O  py         

 Vector   16  Occ=0.000000D+00  E= 1.681027D-01
              MO Center= -9.5D-09,  9.6D-09,  2.0D-01, r^2= 8.7D+00
   Bfn.  Coefficient  Atom+Function         Bfn.  Coefficient  Atom+Function  
  ----- ------------  ---------------      ----- ------------  ---------------
    11      1.500752  1 O  px                12     -1.500781  1 O  py         
    36     -0.996251  2 C  px                37      0.996271  2 C  py         
    47      0.266288  2 C  dxz               49     -0.266293  2 C  dyz        
    33     -0.204702  2 C  px                34      0.204706  2 C  py         
     5     -0.159880  1 O  px                 6      0.159883  1 O  py         

 Vector   17  Occ=0.000000D+00  E= 2.333595D-01
              MO Center=  4.0D-09, -4.1D-09, -6.8D-03, r^2= 8.7D+00
   Bfn.  Coefficient  Atom+Function         Bfn.  Coefficient  Atom+Function  
  ----- ------------  ---------------      ----- ------------  ---------------
     4      7.193185  1 O  s                 29     -3.910265  2 C  s          
    28     -2.138750  2 C  s                 38      1.836227  2 C  pz         
    35      1.180646  2 C  pz                50     -0.918408  2 C  dzz        
    13      0.871162  1 O  pz                10      0.504356  1 O  pz         
     2     -0.248169  1 O  s                  3      0.093358  1 O  s          

 Vector   18  Occ=0.000000D+00  E= 3.096537D-01
              MO Center=  1.1D-11,  2.9D-11,  1.1D+00, r^2= 3.2D+00
   Bfn.  Coefficient  Atom+Function         Bfn.  Coefficient  Atom+Function  
  ----- ------------  ---------------      ----- ------------  ---------------
    45      0.848325  2 C  dxx               48     -0.848325  2 C  dyy        
    20      0.029012  1 O  dxx               23     -0.029012  1 O  dyy        

 Vector   19  Occ=0.000000D+00  E= 3.096540D-01
              MO Center=  1.2D-10, -8.6D-11,  1.1D+00, r^2= 3.2D+00
   Bfn.  Coefficient  Atom+Function         Bfn.  Coefficient  Atom+Function  
  ----- ------------  ---------------      ----- ------------  ---------------
    46      1.696650  2 C  dxy               21      0.058025  1 O  dxy        
    15      0.036823  1 O  dxy        

 Vector   20  Occ=0.000000D+00  E= 3.734470D-01
              MO Center=  2.5D-10, -2.3D-10,  2.0D+00, r^2= 4.2D+00
   Bfn.  Coefficient  Atom+Function         Bfn.  Coefficient  Atom+Function  
  ----- ------------  ---------------      ----- ------------  ---------------
    29     -2.043213  2 C  s                  4      1.908879  1 O  s          
    28     -1.705440  2 C  s                 50      1.466869  2 C  dzz        
    35      0.882590  2 C  pz                10      0.709147  1 O  pz         
    13      0.659718  1 O  pz                45      0.438716  2 C  dxx        
    48      0.438716  2 C  dyy               38     -0.281685  2 C  pz         

 Vector   21  Occ=0.000000D+00  E= 4.129792D-01
              MO Center= -7.6D-09,  7.8D-09,  7.1D-01, r^2= 5.5D+00
   Bfn.  Coefficient  Atom+Function         Bfn.  Coefficient  Atom+Function  
  ----- ------------  ---------------      ----- ------------  ---------------
     4      4.518972  1 O  s                 13      2.107223  1 O  pz         
    45     -1.905202  2 C  dxx               48     -1.905202  2 C  dyy        
    28     -0.914250  2 C  s                  3     -0.803781  1 O  s          
    50     -0.570790  2 C  dzz               25     -0.364712  1 O  dzz        
    38      0.227250  2 C  pz                32      0.222574  2 C  pz         

 Vector   22  Occ=0.000000D+00  E= 4.574520D-01
              MO Center= -2.5D-10, -2.5D-10,  1.7D+00, r^2= 3.7D+00
   Bfn.  Coefficient  Atom+Function         Bfn.  Coefficient  Atom+Function  
  ----- ------------  ---------------      ----- ------------  ---------------
    47      1.808443  2 C  dxz               49      1.809320  2 C  dyz        
    11      0.662788  1 O  px                12      0.663109  1 O  py         
    36     -0.542570  2 C  px                37     -0.542833  2 C  py         
     8      0.469007  1 O  px                 9      0.469235  1 O  py         
    30     -0.238997  2 C  px                31     -0.239112  2 C  py         

 Vector   23  Occ=0.000000D+00  E= 4.574520D-01
              MO Center= -7.8D-09,  7.7D-09,  1.7D+00, r^2= 3.7D+00
   Bfn.  Coefficient  Atom+Function         Bfn.  Coefficient  Atom+Function  
  ----- ------------  ---------------      ----- ------------  ---------------
    47      1.809320  2 C  dxz               49     -1.808443  2 C  dyz        
    11      0.663109  1 O  px                12     -0.662788  1 O  py         
    36     -0.542833  2 C  px                37      0.542570  2 C  py         
     8      0.469235  1 O  px                 9     -0.469007  1 O  py         
    30     -0.239112  2 C  px                31      0.238997  2 C  py         

 Vector   24  Occ=0.000000D+00  E= 5.635896D-01
              MO Center=  3.6D-08, -3.6D-08,  6.4D-01, r^2= 3.7D+00
   Bfn.  Coefficient  Atom+Function         Bfn.  Coefficient  Atom+Function  
  ----- ------------  ---------------      ----- ------------  ---------------
    33      1.476301  2 C  px                34     -1.477896  2 C  py         
    47     -1.086402  2 C  dxz               49      1.087576  2 C  dyz        
    11     -0.701360  1 O  px                12      0.702117  1 O  py         
    30     -0.560950  2 C  px                31      0.561556  2 C  py         
    22     -0.497449  1 O  dxz               24      0.497987  1 O  dyz        

 Vector   25  Occ=0.000000D+00  E= 5.635896D-01
              MO Center=  8.0D-12, -5.0D-12,  6.4D-01, r^2= 3.7D+00
   Bfn.  Coefficient  Atom+Function         Bfn.  Coefficient  Atom+Function  
  ----- ------------  ---------------      ----- ------------  ---------------
    33      1.477896  2 C  px                34      1.476301  2 C  py         
    47     -1.087576  2 C  dxz               49     -1.086402  2 C  dyz        
    11     -0.702117  1 O  px                12     -0.701360  1 O  py         
    30     -0.561556  2 C  px                31     -0.560950  2 C  py         
    22     -0.497987  1 O  dxz               24     -0.497449  1 O  dyz        

 Vector   26  Occ=0.000000D+00  E= 5.771876D-01
              MO Center= -2.0D-08,  2.0D-08,  6.2D-01, r^2= 5.0D+00
   Bfn.  Coefficient  Atom+Function         Bfn.  Coefficient  Atom+Function  
  ----- ------------  ---------------      ----- ------------  ---------------
     4      7.945078  1 O  s                 28     -7.071842  2 C  s          
    35      6.244976  2 C  pz                 3      4.308040  1 O  s          
    50     -3.591310  2 C  dzz               29     -2.738634  2 C  s          
    13      1.910263  1 O  pz                10      1.451323  1 O  pz         
    25      0.976183  1 O  dzz               38      0.701813  2 C  pz         

 Vector   27  Occ=0.000000D+00  E= 6.761214D-01
              MO Center=  1.5D-09, -1.5D-09,  6.9D-01, r^2= 2.7D+00
   Bfn.  Coefficient  Atom+Function         Bfn.  Coefficient  Atom+Function  
  ----- ------------  ---------------      ----- ------------  ---------------
     3      1.305106  1 O  s                 50     -1.136597  2 C  dzz        
     4      0.830903  1 O  s                 13     -0.766021  1 O  pz         
    32      0.754349  2 C  pz                35      0.670655  2 C  pz         
    38      0.650541  2 C  pz                25     -0.609193  1 O  dzz        
    29     -0.506428  2 C  s                 45      0.442365  2 C  dxx        

 Vector   28  Occ=0.000000D+00  E= 8.571966D-01
              MO Center=  1.4D-11, -3.3D-12,  1.8D-01, r^2= 2.1D+00
   Bfn.  Coefficient  Atom+Function         Bfn.  Coefficient  Atom+Function  
  ----- ------------  ---------------      ----- ------------  ---------------
    20      0.973237  1 O  dxx               23     -0.973237  1 O  dyy        
    45     -0.519820  2 C  dxx               48      0.519820  2 C  dyy        
    39      0.053548  2 C  dxx               42     -0.053548  2 C  dyy        

 Vector   29  Occ=0.000000D+00  E= 8.571967D-01
              MO Center=  2.4D-11, -1.7D-11,  1.8D-01, r^2= 2.1D+00
   Bfn.  Coefficient  Atom+Function         Bfn.  Coefficient  Atom+Function  
  ----- ------------  ---------------      ----- ------------  ---------------
    21      1.946474  1 O  dxy               46     -1.039640  2 C  dxy        
    40      0.107096  2 C  dxy        

 Vector   30  Occ=0.000000D+00  E= 9.651386D-01
              MO Center=  1.8D-11,  3.5D-11, -2.3D-01, r^2= 2.1D+00
   Bfn.  Coefficient  Atom+Function         Bfn.  Coefficient  Atom+Function  
  ----- ------------  ---------------      ----- ------------  ---------------
    22      1.198965  1 O  dxz               24      1.199596  1 O  dyz        
    11      0.673964  1 O  px                12      0.674319  1 O  py         
    47      0.388624  2 C  dxz               49      0.388828  2 C  dyz        
     8     -0.355720  1 O  px                 9     -0.355907  1 O  py         
    36     -0.346175  2 C  px                37     -0.346357  2 C  py         

 Vector   31  Occ=0.000000D+00  E= 9.651386D-01
              MO Center=  6.1D-11, -6.7D-11, -2.3D-01, r^2= 2.1D+00
   Bfn.  Coefficient  Atom+Function         Bfn.  Coefficient  Atom+Function  
  ----- ------------  ---------------      ----- ------------  ---------------
    22      1.199596  1 O  dxz               24     -1.198965  1 O  dyz        
    11      0.674319  1 O  px                12     -0.673964  1 O  py         
    47      0.388828  2 C  dxz               49     -0.388624  2 C  dyz        
     8     -0.355907  1 O  px                 9      0.355720  1 O  py         
    36     -0.346357  2 C  px                37      0.346175  2 C  py         

 Vector   32  Occ=0.000000D+00  E= 1.048047D+00
              MO Center=  5.1D-10, -5.8D-10, -3.9D-01, r^2= 2.8D+00
   Bfn.  Coefficient  Atom+Function         Bfn.  Coefficient  Atom+Function  
  ----- ------------  ---------------      ----- ------------  ---------------
     4      5.108814  1 O  s                 29     -2.014864  2 C  s          
    25     -1.420060  1 O  dzz               20     -1.225322  1 O  dxx        
    23     -1.225322  1 O  dyy               38      0.774090  2 C  pz         
    10      0.707502  1 O  pz                13      0.639040  1 O  pz         
     7     -0.560758  1 O  pz                45     -0.534743  2 C  dxx        

 Vector   33  Occ=0.000000D+00  E= 1.275616D+00
              MO Center= -1.4D-09,  1.4D-09,  3.9D-01, r^2= 2.9D+00
   Bfn.  Coefficient  Atom+Function         Bfn.  Coefficient  Atom+Function  
  ----- ------------  ---------------      ----- ------------  ---------------
    35      6.433229  2 C  pz                 4      5.090561  1 O  s          
    28     -4.938238  2 C  s                  3      4.139137  1 O  s          
    50     -3.828552  2 C  dzz               20      1.960940  1 O  dxx        
    23      1.960940  1 O  dyy               10      1.476665  1 O  pz         
    13      1.120656  1 O  pz                29     -0.923475  2 C  s          

 Vector   34  Occ=0.000000D+00  E= 1.349070D+00
              MO Center=  1.4D-10, -1.4D-10,  5.8D-01, r^2= 1.8D+00
   Bfn.  Coefficient  Atom+Function         Bfn.  Coefficient  Atom+Function  
  ----- ------------  ---------------      ----- ------------  ---------------
     8      1.448245  1 O  px                 9     -1.450137  1 O  py         
    47      1.403397  2 C  dxz               49     -1.405231  2 C  dyz        
    22      0.998973  1 O  dxz               24     -1.000278  1 O  dyz        
    33     -0.862072  2 C  px                34      0.863199  2 C  py         
     5     -0.617605  1 O  px                 6      0.618412  1 O  py         

 Vector   35  Occ=0.000000D+00  E= 1.349070D+00
              MO Center= -8.5D-12, -1.2D-11,  5.8D-01, r^2= 1.8D+00
   Bfn.  Coefficient  Atom+Function         Bfn.  Coefficient  Atom+Function  
  ----- ------------  ---------------      ----- ------------  ---------------
     8      1.450137  1 O  px                 9      1.448245  1 O  py         
    47      1.405231  2 C  dxz               49      1.403397  2 C  dyz        
    22      1.000278  1 O  dxz               24      0.998973  1 O  dyz        
    33     -0.863199  2 C  px                34     -0.862072  2 C  py         
     5     -0.618412  1 O  px                 6     -0.617605  1 O  py         

 Vector   36  Occ=0.000000D+00  E= 1.402294D+00
              MO Center=  6.2D-12, -7.2D-12,  1.1D+00, r^2= 1.4D+00
   Bfn.  Coefficient  Atom+Function         Bfn.  Coefficient  Atom+Function  
  ----- ------------  ---------------      ----- ------------  ---------------
    39      1.008811  2 C  dxx               42     -1.008811  2 C  dyy        
    45     -0.418995  2 C  dxx               48      0.418995  2 C  dyy        
    20     -0.199452  1 O  dxx               23      0.199452  1 O  dyy        
    14      0.030368  1 O  dxx               17     -0.030368  1 O  dyy        

 Vector   37  Occ=0.000000D+00  E= 1.402294D+00
              MO Center=  4.1D-11, -4.3D-11,  1.1D+00, r^2= 1.4D+00
   Bfn.  Coefficient  Atom+Function         Bfn.  Coefficient  Atom+Function  
  ----- ------------  ---------------      ----- ------------  ---------------
    40      2.017622  2 C  dxy               46     -0.837990  2 C  dxy        
    21     -0.398904  1 O  dxy               15      0.060737  1 O  dxy        

 Vector   38  Occ=0.000000D+00  E= 1.497586D+00
              MO Center=  1.4D-09, -1.4D-09,  1.6D+00, r^2= 2.6D+00
   Bfn.  Coefficient  Atom+Function         Bfn.  Coefficient  Atom+Function  
  ----- ------------  ---------------      ----- ------------  ---------------
    28      9.193969  2 C  s                  3     -4.024674  1 O  s          
    10     -3.530389  1 O  pz                35     -3.494305  2 C  pz         
    45     -1.925380  2 C  dxx               48     -1.925380  2 C  dyy        
    25     -1.809572  1 O  dzz               29      1.722652  2 C  s          
    27     -1.587036  2 C  s                  4     -1.345383  1 O  s          

 Vector   39  Occ=0.000000D+00  E= 1.698260D+00
              MO Center= -1.0D-11, -1.4D-11,  9.4D-01, r^2= 1.8D+00
   Bfn.  Coefficient  Atom+Function         Bfn.  Coefficient  Atom+Function  
  ----- ------------  ---------------      ----- ------------  ---------------
    41      1.777457  2 C  dxz               43      1.777803  2 C  dyz        
    22      1.644241  1 O  dxz               24      1.644561  1 O  dyz        
     8      1.047218  1 O  px                 9      1.047422  1 O  py         
    33     -0.845252  2 C  px                34     -0.845417  2 C  py         
    30     -0.369082  2 C  px                31     -0.369154  2 C  py         

 Vector   40  Occ=0.000000D+00  E= 1.698260D+00
              MO Center=  1.2D-09, -1.2D-09,  9.4D-01, r^2= 1.8D+00
   Bfn.  Coefficient  Atom+Function         Bfn.  Coefficient  Atom+Function  
  ----- ------------  ---------------      ----- ------------  ---------------
    41      1.777803  2 C  dxz               43     -1.777457  2 C  dyz        
    22      1.644561  1 O  dxz               24     -1.644241  1 O  dyz        
     8      1.047422  1 O  px                 9     -1.047218  1 O  py         
    33     -0.845417  2 C  px                34      0.845252  2 C  py         
    30     -0.369154  2 C  px                31      0.369082  2 C  py         

 Vector   41  Occ=0.000000D+00  E= 1.880150D+00
              MO Center= -6.2D-13, -5.7D-14,  8.7D-01, r^2= 1.7D+00
   Bfn.  Coefficient  Atom+Function         Bfn.  Coefficient  Atom+Function  
  ----- ------------  ---------------      ----- ------------  ---------------
     4      2.591441  1 O  s                 28     -2.385773  2 C  s          
    27     -1.680751  2 C  s                  3      1.583020  1 O  s          
    10      1.341731  1 O  pz                35      1.190864  2 C  pz         
    13      1.086410  1 O  pz                44     -0.885739  2 C  dzz        
    39      0.868956  2 C  dxx               42      0.868956  2 C  dyy        

 Vector   42  Occ=0.000000D+00  E= 2.249772D+00
              MO Center= -1.4D-10,  1.4D-10,  5.9D-01, r^2= 1.6D+00
   Bfn.  Coefficient  Atom+Function         Bfn.  Coefficient  Atom+Function  
  ----- ------------  ---------------      ----- ------------  ---------------
    28      4.811784  2 C  s                 10     -3.109281  1 O  pz         
     4     -3.047470  1 O  s                 35     -2.530222  2 C  pz         
    25     -2.492406  1 O  dzz               27      2.229777  2 C  s          
     3     -1.783304  1 O  s                 44     -1.342167  2 C  dzz        
    50      1.140143  2 C  dzz               26      1.094480  2 C  s          

 Vector   43  Occ=0.000000D+00  E= 3.161393D+00
              MO Center=  4.6D-13, -1.1D-12,  1.2D-02, r^2= 7.0D-01
   Bfn.  Coefficient  Atom+Function         Bfn.  Coefficient  Atom+Function  
  ----- ------------  ---------------      ----- ------------  ---------------
    14      1.025758  1 O  dxx               17     -1.025758  1 O  dyy        
    20     -0.600816  1 O  dxx               23      0.600816  1 O  dyy        
    45      0.184634  2 C  dxx               48     -0.184634  2 C  dyy        
    39     -0.055404  2 C  dxx               42      0.055404  2 C  dyy        

 Vector   44  Occ=0.000000D+00  E= 3.161393D+00
              MO Center=  9.3D-13, -1.6D-12,  1.2D-02, r^2= 7.0D-01
   Bfn.  Coefficient  Atom+Function         Bfn.  Coefficient  Atom+Function  
  ----- ------------  ---------------      ----- ------------  ---------------
    15      2.051515  1 O  dxy               21     -1.201633  1 O  dxy        
    46      0.369268  2 C  dxy               40     -0.110808  2 C  dxy        

 Vector   45  Occ=0.000000D+00  E= 3.278670D+00
              MO Center= -1.3D-12,  5.3D-13,  1.7D-02, r^2= 8.6D-01
   Bfn.  Coefficient  Atom+Function         Bfn.  Coefficient  Atom+Function  
  ----- ------------  ---------------      ----- ------------  ---------------
    18      1.513678  1 O  dyz               16      1.504343  1 O  dxz        
    24     -0.954888  1 O  dyz               22     -0.948999  1 O  dxz        
    49     -0.527867  2 C  dyz               47     -0.524611  2 C  dxz        
    34      0.393188  2 C  py                33      0.390763  2 C  px         
    43      0.375837  2 C  dyz               41      0.373520  2 C  dxz        

 Vector   46  Occ=0.000000D+00  E= 3.278670D+00
              MO Center= -3.8D-11,  3.8D-11,  1.7D-02, r^2= 8.6D-01
   Bfn.  Coefficient  Atom+Function         Bfn.  Coefficient  Atom+Function  
  ----- ------------  ---------------      ----- ------------  ---------------
    16      1.513678  1 O  dxz               18     -1.504343  1 O  dyz        
    22     -0.954888  1 O  dxz               24      0.948999  1 O  dyz        
    47     -0.527867  2 C  dxz               49      0.524611  2 C  dyz        
    33      0.393188  2 C  px                34     -0.390763  2 C  py         
    41      0.375837  2 C  dxz               43     -0.373520  2 C  dyz        

 Vector   47  Occ=0.000000D+00  E= 3.611622D+00
              MO Center=  1.2D-10, -1.3D-10,  6.9D-02, r^2= 8.4D-01
   Bfn.  Coefficient  Atom+Function         Bfn.  Coefficient  Atom+Function  
  ----- ------------  ---------------      ----- ------------  ---------------
    28      4.060492  2 C  s                 35     -2.795036  2 C  pz         
     3     -2.631059  1 O  s                  4     -2.109903  1 O  s          
    10     -1.730765  1 O  pz                19     -1.276913  1 O  dzz        
    50      1.032591  2 C  dzz               20     -0.883617  1 O  dxx        
    23     -0.883617  1 O  dyy               32     -0.867006  2 C  pz         

 Vector   48  Occ=0.000000D+00  E= 4.130649D+00
              MO Center=  1.7D-10, -1.7D-10,  8.7D-02, r^2= 1.9D+00
   Bfn.  Coefficient  Atom+Function         Bfn.  Coefficient  Atom+Function  
  ----- ------------  ---------------      ----- ------------  ---------------
    28      4.833962  2 C  s                  3      3.645864  1 O  s          
     2     -3.515844  1 O  s                  4      3.035689  1 O  s          
    20     -2.470358  1 O  dxx               23     -2.470358  1 O  dyy        
    25     -1.925471  1 O  dzz                1     -1.777907  1 O  s          
    27     -1.484604  2 C  s                 35     -1.395190  2 C  pz         

 Vector   49  Occ=0.000000D+00  E= 4.425761D+00
              MO Center= -2.9D-11,  2.5D-11,  9.8D-01, r^2= 2.7D+00
   Bfn.  Coefficient  Atom+Function         Bfn.  Coefficient  Atom+Function  
  ----- ------------  ---------------      ----- ------------  ---------------
     4      4.347217  1 O  s                 35      3.616858  2 C  pz         
    50     -3.626713  2 C  dzz               27     -3.146103  2 C  s          
    28      3.128352  2 C  s                 10      2.569527  1 O  pz         
    45     -2.472806  2 C  dxx               48     -2.472806  2 C  dyy        
    25      2.429405  1 O  dzz               26     -2.418903  2 C  s          

 Vector   50  Occ=0.000000D+00  E= 9.236428D+00
              MO Center=  5.2D-10, -5.2D-10, -4.5D-02, r^2= 1.4D+00
   Bfn.  Coefficient  Atom+Function         Bfn.  Coefficient  Atom+Function  
  ----- ------------  ---------------      ----- ------------  ---------------
     3      9.885730  1 O  s                 25     -4.313018  1 O  dzz        
    20     -4.239181  1 O  dxx               23     -4.239181  1 O  dyy        
     2     -3.149995  1 O  s                 28      3.163738  2 C  s          
    35     -2.933830  2 C  pz                 1     -2.639782  1 O  s          
    19     -2.293625  1 O  dzz               14     -2.248662  1 O  dxx        


 center of mass
 --------------
 x =   0.00000000 y =   0.00000000 z =   0.93153429

 moments of inertia (a.u.)
 ------------------
          32.380035712816           0.000000000000           0.000000000000
           0.000000000000          32.380035712816           0.000000000000
           0.000000000000           0.000000000000           0.000000000000

     Multipole analysis of the density
     ---------------------------------

     L   x y z        total         alpha         beta         nuclear
     -   - - -        -----         -----         ----         -------
     0   0 0 0     -0.000000     -7.000000     -7.000000     14.000000

     1   1 0 0      0.000000      0.000000      0.000000      0.000000
     1   0 1 0      0.000000      0.000000      0.000000      0.000000
     1   0 0 1     -0.005112     -6.522111     -6.522111     13.039109

     2   2 0 0     -7.712823     -3.856412     -3.856412      0.000000
     2   1 1 0     -0.000000     -0.000000     -0.000000      0.000000
     2   1 0 1     -0.000000     -0.000000     -0.000000      0.000000
     2   0 2 0     -7.712823     -3.856412     -3.856412      0.000000
     2   0 1 1      0.000000      0.000000      0.000000      0.000000
     2   0 0 2     -9.238281    -18.787338    -18.787338     28.336395


 Parallel integral file used       7 records with       0 large values


            General Information
            -------------------
          SCF calculation type: DFT
          Wavefunction type:  closed shell.
          No. of atoms     :     2
          No. of electrons :    14
           Alpha electrons :     7
            Beta electrons :     7
          Charge           :     0
          Spin multiplicity:     1
          Use of symmetry is: off; symmetry adaption is: off
          Maximum number of iterations:  30
          AO basis - number of functions:    50
                     number of shells:    18
          Convergence on energy requested:  1.00D-06
          Convergence on density requested:  1.00D-05
          Convergence on gradient requested:  5.00D-04

              XC Information
              --------------
                         B3LYP Method XC Potential
                     Hartree-Fock (Exact) Exchange  0.200          
                        Slater Exchange Functional  0.800 local    
                    Becke 1988 Exchange Functional  0.720 non-local
              Lee-Yang-Parr Correlation Functional  0.810          
                  VWN I RPA Correlation Functional  0.190 local    

             Grid Information
             ----------------
          Grid used for XC integration:  medium    
          Radial quadrature: Mura-Knowles        
          Angular quadrature: Lebedev. 
          Tag              B.-S. Rad. Rad. Pts. Rad. Cut. Ang. Pts.
          ---              ---------- --------- --------- ---------
          O                   0.60       49           9.0       434
          C                   0.70       49           8.0       434
          Grid pruning is: on 
          Number of quadrature shells:    98
          Spatial weights used:  Erf1

          Convergence Information
          -----------------------
          Convergence aids based upon iterative change in 
          total energy or number of iterations. 
          Levelshifting, if invoked, occurs when the 
          HOMO/LUMO gap drops below (HL_TOL):  1.00D-02
          DIIS, if invoked, will attempt to extrapolate 
          using up to (NFOCK): 10 stored Fock matrices.

                    Damping( 0%)  Levelshifting(0.5)       DIIS
                  --------------- ------------------- ---------------
          dE  on:    start            ASAP                start   
          dE off:    2 iters         30 iters            30 iters 


      Screening Tolerance Information
      -------------------------------
          Density screening/tol_rho:  1.00D-10
          AO Gaussian exp screening on grid/accAOfunc:  14
          CD Gaussian exp screening on grid/accCDfunc:  20
          XC Gaussian exp screening on grid/accXCfunc:  20
          Schwarz screening/accCoul:  1.00D-08



                            NWChem DFT Gradient Module
                            --------------------------


                                      co_core



  charge          =   0.00
  wavefunction    = closed shell



                         DFT ENERGY GRADIENTS

    atom               coordinates                        gradient
                 x          y          z           x          y          z
   1 O       0.000000   0.000000   0.000000    0.000000  -0.000000  -0.036402
   2 C       0.000000   0.000000   2.173185   -0.000000   0.000000   0.036402

                 ----------------------------------------
                 |  Time  |  1-e(secs)   |  2-e(secs)   |
                 ----------------------------------------
                 |  CPU   |       0.01   |       0.97   |
                 ----------------------------------------
                 |  WALL  |       0.00   |       1.06   |
                 ----------------------------------------
  no constraints, skipping    0.0000000000000000     

@ Step       Energy      Delta E   Gmax     Grms     Xrms     Xmax   Walltime
@ ---- ---------------- -------- -------- -------- -------- -------- --------
@    0    -113.33252347  0.0D+00  0.03640  0.03640  0.00000  0.00000     13.0
                                                                    



                                Z-matrix (autoz)
                                -------- 

 Units are Angstrom for bonds and degrees for angles

      Type          Name      I     J     K     L     M      Value     Gradient
      ----------- --------  ----- ----- ----- ----- ----- ---------- ----------
    1 Stretch                  1     2                       1.15000    0.03640

  no constraints, skipping    0.0000000000000000     
  no constraints, skipping    0.0000000000000000     
  no constraints, skipping    0.0000000000000000     

                                 NWChem DFT Module
                                 -----------------


                                      co_core




 Summary of "ao basis" -> "ao basis" (cartesian)
 ------------------------------------------------------------------------------
       Tag                 Description            Shells   Functions and Types
 ---------------- ------------------------------  ------  ---------------------
 O                        aug-cc-pvdz                9       25   4s3p2d
 C                        aug-cc-pvdz                9       25   4s3p2d


  Caching 1-el integrals 

            General Information
            -------------------
          SCF calculation type: DFT
          Wavefunction type:  closed shell.
          No. of atoms     :     2
          No. of electrons :    14
           Alpha electrons :     7
            Beta electrons :     7
          Charge           :     0
          Spin multiplicity:     1
          Use of symmetry is: off; symmetry adaption is: off
          Maximum number of iterations:  30
          AO basis - number of functions:    50
                     number of shells:    18
          Convergence on energy requested:  1.00D-06
          Convergence on density requested:  1.00D-05
          Convergence on gradient requested:  5.00D-04

              XC Information
              --------------
                         B3LYP Method XC Potential
                     Hartree-Fock (Exact) Exchange  0.200          
                        Slater Exchange Functional  0.800 local    
                    Becke 1988 Exchange Functional  0.720 non-local
              Lee-Yang-Parr Correlation Functional  0.810          
                  VWN I RPA Correlation Functional  0.190 local    

             Grid Information
             ----------------
          Grid used for XC integration:  medium    
          Radial quadrature: Mura-Knowles        
          Angular quadrature: Lebedev. 
          Tag              B.-S. Rad. Rad. Pts. Rad. Cut. Ang. Pts.
          ---              ---------- --------- --------- ---------
          O                   0.60       49           9.0       434
          C                   0.70       49           8.0       434
          Grid pruning is: on 
          Number of quadrature shells:    98
          Spatial weights used:  Erf1

          Convergence Information
          -----------------------
          Convergence aids based upon iterative change in 
          total energy or number of iterations. 
          Levelshifting, if invoked, occurs when the 
          HOMO/LUMO gap drops below (HL_TOL):  1.00D-02
          DIIS, if invoked, will attempt to extrapolate 
          using up to (NFOCK): 10 stored Fock matrices.

                    Damping( 0%)  Levelshifting(0.5)       DIIS
                  --------------- ------------------- ---------------
          dE  on:    start            ASAP                start   
          dE off:    2 iters         30 iters            30 iters 


      Screening Tolerance Information
      -------------------------------
          Density screening/tol_rho:  1.00D-10
          AO Gaussian exp screening on grid/accAOfunc:  14
          CD Gaussian exp screening on grid/accCDfunc:  20
          XC Gaussian exp screening on grid/accXCfunc:  20
          Schwarz screening/accCoul:  1.00D-08


 Loading old vectors from job with title :

co_core

   Time after variat. SCF:     13.9
   Time prior to 1st pass:     13.9

 Integral file          = ./co_core.aoints.0
 Record size in doubles =    65536    No. of integs per rec  =    43688
 Max. records in memory =       10    Max. records in file   = 63333331
 No. of bits per label  =        8    No. of bits per value  =       64


 #quartets = 1.471D+04 #integrals = 2.327D+05 #direct =  0.0% #cached =100.0%


File balance: exchanges=     0  moved=     0  time=   0.0


 Grid_pts file          = ./co_core.gridpts.0
 Record size in doubles =  12289        No. of grid_pts per rec  =   3070
 Max. records in memory =      7        Max. recs in file   = 337750284


           Memory utilization after 1st SCF pass: 
           Heap Space remaining (MW):       19.11            19112414
          Stack Space remaining (MW):       32.77            32767628

   convergence    iter        energy       DeltaE   RMS-Dens  Diis-err    time
 ---------------- ----- ----------------- --------- --------- ---------  ------
 d= 0,ls=0.0,diis     1   -113.3318110868 -1.36D+02  2.13D-03  7.20D-03    18.5
 d= 0,ls=0.0,diis     2   -113.3324485412 -6.37D-04  5.38D-04  1.84D-03    19.0
 d= 0,ls=0.0,diis     3   -113.3324972313 -4.87D-05  3.42D-04  1.27D-03    19.5
 d= 0,ls=0.0,diis     4   -113.3325932409 -9.60D-05  1.19D-04  1.56D-04    20.1
 d= 0,ls=0.0,diis     5   -113.3326094935 -1.63D-05  4.65D-06  8.45D-08    21.2
 d= 0,ls=0.0,diis     6   -113.3326095041 -1.06D-08  3.76D-07  8.77D-10    21.8


         Total DFT energy =     -113.332609504139
      One electron energy =     -198.578508546312
           Coulomb energy =       76.434851750068
    Exchange-Corr. energy =      -13.889043035623
 Nuclear repulsion energy =       22.700090327728

 Numeric. integr. density =       14.000000275056

     Total iterative time =      7.9s



                       DFT Final Molecular Orbital Analysis
                       ------------------------------------

 Vector    1  Occ=2.000000D+00  E=-1.926238D+01
              MO Center= -2.8D-16, -2.8D-16,  1.6D-02, r^2= 1.5D-02
   Bfn.  Coefficient  Atom+Function         Bfn.  Coefficient  Atom+Function  
  ----- ------------  ---------------      ----- ------------  ---------------
     1      1.004400  1 O  s          

 Vector    2  Occ=2.000000D+00  E=-1.030965D+01
              MO Center= -5.1D-15, -5.2D-15,  1.1D+00, r^2= 2.8D-02
   Bfn.  Coefficient  Atom+Function         Bfn.  Coefficient  Atom+Function  
  ----- ------------  ---------------      ----- ------------  ---------------
    26      1.004708  2 C  s          

 Vector    3  Occ=2.000000D+00  E=-1.184843D+00
              MO Center= -8.5D-13, -8.6D-13,  3.4D-01, r^2= 4.1D-01
   Bfn.  Coefficient  Atom+Function         Bfn.  Coefficient  Atom+Function  
  ----- ------------  ---------------      ----- ------------  ---------------
     2      0.396633  1 O  s                  3      0.330369  1 O  s          
    32     -0.239295  2 C  pz                28      0.233482  2 C  s          
    27      0.226130  2 C  s                  7      0.187469  1 O  pz         
    25     -0.069616  1 O  dzz               35     -0.058289  2 C  pz         
    10     -0.039280  1 O  pz                44      0.030370  2 C  dzz        

 Vector    4  Occ=2.000000D+00  E=-5.869684D-01
              MO Center=  1.3D-12,  1.3D-12, -6.8D-03, r^2= 7.5D-01
   Bfn.  Coefficient  Atom+Function         Bfn.  Coefficient  Atom+Function  
  ----- ------------  ---------------      ----- ------------  ---------------
     7      0.497003  1 O  pz                 3     -0.448475  1 O  s          
    28      0.299096  2 C  s                 27      0.275719  2 C  s          
     2     -0.240762  1 O  s                 10      0.196285  1 O  pz         
    32     -0.133492  2 C  pz                 4     -0.086694  1 O  s          
    29      0.051022  2 C  s                 50     -0.048580  2 C  dzz        

 Vector    5  Occ=2.000000D+00  E=-4.880023D-01
              MO Center= -1.5D-13, -1.7D-13,  3.1D-01, r^2= 7.9D-01
   Bfn.  Coefficient  Atom+Function         Bfn.  Coefficient  Atom+Function  
  ----- ------------  ---------------      ----- ------------  ---------------
     5      0.395016  1 O  px                 6     -0.395426  1 O  py         
    30      0.232745  2 C  px                31     -0.232987  2 C  py         
     8      0.224998  1 O  px                 9     -0.225232  1 O  py         
    33      0.079210  2 C  px                34     -0.079292  2 C  py         
    41     -0.062500  2 C  dxz               43      0.062565  2 C  dyz        

 Vector    6  Occ=2.000000D+00  E=-4.880023D-01
              MO Center= -2.2D-11, -2.2D-11,  3.1D-01, r^2= 7.9D-01
   Bfn.  Coefficient  Atom+Function         Bfn.  Coefficient  Atom+Function  
  ----- ------------  ---------------      ----- ------------  ---------------
     5      0.395426  1 O  px                 6      0.395016  1 O  py         
    30      0.232987  2 C  px                31      0.232745  2 C  py         
     8      0.225232  1 O  px                 9      0.224998  1 O  py         
    33      0.079292  2 C  px                34      0.079210  2 C  py         
    41     -0.062565  2 C  dxz               43     -0.062500  2 C  dyz        

 Vector    7  Occ=2.000000D+00  E=-3.854563D-01
              MO Center=  2.0D-12,  2.0D-12,  1.4D+00, r^2= 1.0D+00
   Bfn.  Coefficient  Atom+Function         Bfn.  Coefficient  Atom+Function  
  ----- ------------  ---------------      ----- ------------  ---------------
    32      0.469635  2 C  pz                28      0.328320  2 C  s          
    27      0.274765  2 C  s                  7     -0.270299  1 O  pz         
    35      0.251545  2 C  pz                 4      0.158859  1 O  s          
     3      0.078560  1 O  s                 25      0.060700  1 O  dzz        
    44     -0.043195  2 C  dzz                2     -0.035186  1 O  s          

 Vector    8  Occ=0.000000D+00  E=-3.783224D-02
              MO Center= -4.9D-10, -4.9D-10,  1.0D+00, r^2= 2.3D+00
   Bfn.  Coefficient  Atom+Function         Bfn.  Coefficient  Atom+Function  
  ----- ------------  ---------------      ----- ------------  ---------------
    33      0.381989  2 C  px                34      0.381945  2 C  py         
    30      0.365691  2 C  px                31      0.365649  2 C  py         
    36      0.305936  2 C  px                37      0.305901  2 C  py         
     5     -0.274057  1 O  px                 6     -0.274025  1 O  py         
     8     -0.246833  1 O  px                 9     -0.246805  1 O  py         

 Vector    9  Occ=0.000000D+00  E=-3.783224D-02
              MO Center= -8.5D-13, -9.3D-13,  1.0D+00, r^2= 2.3D+00
   Bfn.  Coefficient  Atom+Function         Bfn.  Coefficient  Atom+Function  
  ----- ------------  ---------------      ----- ------------  ---------------
    33      0.381945  2 C  px                34     -0.381989  2 C  py         
    30      0.365649  2 C  px                31     -0.365691  2 C  py         
    36      0.305901  2 C  px                37     -0.305936  2 C  py         
     5     -0.274025  1 O  px                 6      0.274057  1 O  py         
     8     -0.246805  1 O  px                 9      0.246833  1 O  py         

 Vector   10  Occ=0.000000D+00  E= 2.660297D-02
              MO Center= -3.1D-08, -3.1D-08, -2.8D-01, r^2= 8.1D+00
   Bfn.  Coefficient  Atom+Function         Bfn.  Coefficient  Atom+Function  
  ----- ------------  ---------------      ----- ------------  ---------------
    29      2.699412  2 C  s                  4     -2.388363  1 O  s          
    38     -0.877334  2 C  pz                35     -0.684449  2 C  pz         
    13     -0.616128  1 O  pz                28      0.582837  2 C  s          
     3     -0.526489  1 O  s                 10     -0.170148  1 O  pz         
    32     -0.131804  2 C  pz                50      0.125464  2 C  dzz        

 Vector   11  Occ=0.000000D+00  E= 5.252470D-02
              MO Center=  1.1D-08,  1.1D-08,  2.7D+00, r^2= 7.5D+00
   Bfn.  Coefficient  Atom+Function         Bfn.  Coefficient  Atom+Function  
  ----- ------------  ---------------      ----- ------------  ---------------
    38      1.193351  2 C  pz                 4      0.680510  1 O  s          
    29      0.611393  2 C  s                 28     -0.404584  2 C  s          
    50     -0.249306  2 C  dzz               45     -0.195753  2 C  dxx        
    48     -0.195753  2 C  dyy               27     -0.164910  2 C  s          
    32     -0.105590  2 C  pz                35     -0.089865  2 C  pz         

 Vector   12  Occ=0.000000D+00  E= 6.452534D-02
              MO Center= -4.4D-12, -3.2D-12,  1.1D+00, r^2= 9.3D+00
   Bfn.  Coefficient  Atom+Function         Bfn.  Coefficient  Atom+Function  
  ----- ------------  ---------------      ----- ------------  ---------------
    36      0.806730  2 C  px                37     -0.806731  2 C  py         
    33     -0.286667  2 C  px                34      0.286667  2 C  py         
    30     -0.219687  2 C  px                31      0.219687  2 C  py         
     8      0.066863  1 O  px                 9     -0.066863  1 O  py         
    47     -0.054833  2 C  dxz               49      0.054833  2 C  dyz        

 Vector   13  Occ=0.000000D+00  E= 6.452535D-02
              MO Center=  1.7D-08,  1.7D-08,  1.1D+00, r^2= 9.3D+00
   Bfn.  Coefficient  Atom+Function         Bfn.  Coefficient  Atom+Function  
  ----- ------------  ---------------      ----- ------------  ---------------
    36      0.806731  2 C  px                37      0.806730  2 C  py         
    33     -0.286667  2 C  px                34     -0.286667  2 C  py         
    30     -0.219687  2 C  px                31     -0.219687  2 C  py         
     8      0.066863  1 O  px                 9      0.066863  1 O  py         
    47     -0.054833  2 C  dxz               49     -0.054833  2 C  dyz        

 Vector   14  Occ=0.000000D+00  E= 1.361746D-01
              MO Center=  1.6D-09,  1.6D-09, -4.1D-01, r^2= 7.4D+00
   Bfn.  Coefficient  Atom+Function         Bfn.  Coefficient  Atom+Function  
  ----- ------------  ---------------      ----- ------------  ---------------
    13      2.558967  1 O  pz                 4      2.428396  1 O  s          
    28     -1.984638  2 C  s                 38     -0.648240  2 C  pz         
    50     -0.629072  2 C  dzz               35      0.531507  2 C  pz         
    29     -0.524720  2 C  s                 45     -0.431022  2 C  dxx        
    48     -0.431022  2 C  dyy                3      0.282722  1 O  s          

 Vector   15  Occ=0.000000D+00  E= 1.682938D-01
              MO Center= -4.2D-13, -3.1D-13,  2.4D-01, r^2= 8.8D+00
   Bfn.  Coefficient  Atom+Function         Bfn.  Coefficient  Atom+Function  
  ----- ------------  ---------------      ----- ------------  ---------------
    11      1.527772  1 O  px                12     -1.527747  1 O  py         
    36     -1.026300  2 C  px                37      1.026283  2 C  py         
    47      0.280155  2 C  dxz               49     -0.280151  2 C  dyz        
    33     -0.212092  2 C  px                34      0.212088  2 C  py         
     5     -0.161701  1 O  px                 6      0.161699  1 O  py         

 Vector   16  Occ=0.000000D+00  E= 1.682938D-01
              MO Center= -7.7D-09, -7.7D-09,  2.4D-01, r^2= 8.8D+00
   Bfn.  Coefficient  Atom+Function         Bfn.  Coefficient  Atom+Function  
  ----- ------------  ---------------      ----- ------------  ---------------
    11      1.527747  1 O  px                12      1.527772  1 O  py         
    36     -1.026283  2 C  px                37     -1.026300  2 C  py         
    47      0.280151  2 C  dxz               49      0.280155  2 C  dyz        
    33     -0.212088  2 C  px                34     -0.212092  2 C  py         
     5     -0.161699  1 O  px                 6     -0.161701  1 O  py         

 Vector   17  Occ=0.000000D+00  E= 2.338378D-01
              MO Center=  7.0D-09,  7.0D-09, -6.9D-02, r^2= 8.7D+00
   Bfn.  Coefficient  Atom+Function         Bfn.  Coefficient  Atom+Function  
  ----- ------------  ---------------      ----- ------------  ---------------
     4      7.435593  1 O  s                 29     -4.007245  2 C  s          
    28     -2.344256  2 C  s                 38      1.833299  2 C  pz         
    35      1.282627  2 C  pz                50     -0.949730  2 C  dzz        
    13      0.872612  1 O  pz                10      0.529880  1 O  pz         
     2     -0.239999  1 O  s                  3      0.182096  1 O  s          

 Vector   18  Occ=0.000000D+00  E= 3.100672D-01
              MO Center=  5.9D-12,  5.9D-12,  1.1D+00, r^2= 3.2D+00
   Bfn.  Coefficient  Atom+Function         Bfn.  Coefficient  Atom+Function  
  ----- ------------  ---------------      ----- ------------  ---------------
    45      0.848754  2 C  dxx               48     -0.848754  2 C  dyy        
    20      0.027234  1 O  dxx               23     -0.027234  1 O  dyy        

 Vector   19  Occ=0.000000D+00  E= 3.100673D-01
              MO Center=  4.9D-11,  4.9D-11,  1.1D+00, r^2= 3.2D+00
   Bfn.  Coefficient  Atom+Function         Bfn.  Coefficient  Atom+Function  
  ----- ------------  ---------------      ----- ------------  ---------------
    46      1.697507  2 C  dxy               21      0.054469  1 O  dxy        
    15      0.038868  1 O  dxy        

 Vector   20  Occ=0.000000D+00  E= 3.802510D-01
              MO Center=  6.9D-10,  6.9D-10,  2.1D+00, r^2= 4.0D+00
   Bfn.  Coefficient  Atom+Function         Bfn.  Coefficient  Atom+Function  
  ----- ------------  ---------------      ----- ------------  ---------------
    29      1.951914  2 C  s                 28      1.683090  2 C  s          
    50     -1.557397  2 C  dzz                4     -1.420933  1 O  s          
    35     -0.876351  2 C  pz                10     -0.730353  1 O  pz         
    45     -0.577264  2 C  dxx               48     -0.577264  2 C  dyy        
    13     -0.512600  1 O  pz                38      0.360801  2 C  pz         

 Vector   21  Occ=0.000000D+00  E= 4.186483D-01
              MO Center= -1.3D-10, -1.3D-10,  6.2D-01, r^2= 5.4D+00
   Bfn.  Coefficient  Atom+Function         Bfn.  Coefficient  Atom+Function  
  ----- ------------  ---------------      ----- ------------  ---------------
     4      4.740014  1 O  s                 13      2.226645  1 O  pz         
    45     -1.924909  2 C  dxx               48     -1.924909  2 C  dyy        
    28     -1.016487  2 C  s                  3     -0.896452  1 O  s          
    50     -0.413093  2 C  dzz               25     -0.370179  1 O  dzz        
    29     -0.228525  2 C  s                 20     -0.199624  1 O  dxx        

 Vector   22  Occ=0.000000D+00  E= 4.626196D-01
              MO Center= -3.5D-10, -3.5D-10,  1.7D+00, r^2= 3.7D+00
   Bfn.  Coefficient  Atom+Function         Bfn.  Coefficient  Atom+Function  
  ----- ------------  ---------------      ----- ------------  ---------------
    47      1.825490  2 C  dxz               49      1.825460  2 C  dyz        
    11      0.675293  1 O  px                12      0.675282  1 O  py         
    36     -0.547676  2 C  px                37     -0.547667  2 C  py         
     8      0.488332  1 O  px                 9      0.488323  1 O  py         
    30     -0.248224  2 C  px                31     -0.248220  2 C  py         

 Vector   23  Occ=0.000000D+00  E= 4.626196D-01
              MO Center= -4.2D-13, -3.7D-13,  1.7D+00, r^2= 3.7D+00
   Bfn.  Coefficient  Atom+Function         Bfn.  Coefficient  Atom+Function  
  ----- ------------  ---------------      ----- ------------  ---------------
    47      1.825460  2 C  dxz               49     -1.825490  2 C  dyz        
    11      0.675282  1 O  px                12     -0.675293  1 O  py         
    36     -0.547667  2 C  px                37      0.547676  2 C  py         
     8      0.488323  1 O  px                 9     -0.488332  1 O  py         
    30     -0.248220  2 C  px                31      0.248224  2 C  py         

 Vector   24  Occ=0.000000D+00  E= 5.614369D-01
              MO Center= -1.0D-12, -7.9D-13,  6.0D-01, r^2= 3.7D+00
   Bfn.  Coefficient  Atom+Function         Bfn.  Coefficient  Atom+Function  
  ----- ------------  ---------------      ----- ------------  ---------------
    33      1.520554  2 C  px                34     -1.520627  2 C  py         
    47     -1.128646  2 C  dxz               49      1.128700  2 C  dyz        
    11     -0.755686  1 O  px                12      0.755722  1 O  py         
    30     -0.543408  2 C  px                31      0.543434  2 C  py         
    22     -0.526249  1 O  dxz               24      0.526274  1 O  dyz        

 Vector   25  Occ=0.000000D+00  E= 5.614369D-01
              MO Center=  4.2D-09,  4.2D-09,  6.0D-01, r^2= 3.7D+00
   Bfn.  Coefficient  Atom+Function         Bfn.  Coefficient  Atom+Function  
  ----- ------------  ---------------      ----- ------------  ---------------
    33      1.520627  2 C  px                34      1.520554  2 C  py         
    47     -1.128700  2 C  dxz               49     -1.128646  2 C  dyz        
    11     -0.755722  1 O  px                12     -0.755686  1 O  py         
    30     -0.543434  2 C  px                31     -0.543408  2 C  py         
    22     -0.526274  1 O  dxz               24     -0.526249  1 O  dyz        

 Vector   26  Occ=0.000000D+00  E= 5.744543D-01
              MO Center= -2.3D-09, -2.3D-09,  5.9D-01, r^2= 5.0D+00
   Bfn.  Coefficient  Atom+Function         Bfn.  Coefficient  Atom+Function  
  ----- ------------  ---------------      ----- ------------  ---------------
     4      8.175545  1 O  s                 28     -7.356456  2 C  s          
    35      6.334411  2 C  pz                 3      4.424302  1 O  s          
    50     -3.615246  2 C  dzz               29     -2.783109  2 C  s          
    13      1.929204  1 O  pz                10      1.339364  1 O  pz         
    25      0.980675  1 O  dzz               20      0.711920  1 O  dxx        

 Vector   27  Occ=0.000000D+00  E= 7.164885D-01
              MO Center=  1.5D-10,  1.5D-10,  6.1D-01, r^2= 2.6D+00
   Bfn.  Coefficient  Atom+Function         Bfn.  Coefficient  Atom+Function  
  ----- ------------  ---------------      ----- ------------  ---------------
     3      1.554491  1 O  s                  4      1.545524  1 O  s          
    50     -1.276308  2 C  dzz               35      1.068918  2 C  pz         
    29     -0.753039  2 C  s                 28     -0.741648  2 C  s          
    32      0.736642  2 C  pz                38      0.697295  2 C  pz         
    25     -0.671703  1 O  dzz               13     -0.607997  1 O  pz         

 Vector   28  Occ=0.000000D+00  E= 8.593226D-01
              MO Center=  1.3D-12,  1.3D-12,  2.0D-01, r^2= 2.1D+00
   Bfn.  Coefficient  Atom+Function         Bfn.  Coefficient  Atom+Function  
  ----- ------------  ---------------      ----- ------------  ---------------
    20      0.979174  1 O  dxx               23     -0.979174  1 O  dyy        
    45     -0.534308  2 C  dxx               48      0.534308  2 C  dyy        
    39      0.054781  2 C  dxx               42     -0.054781  2 C  dyy        

 Vector   29  Occ=0.000000D+00  E= 8.593226D-01
              MO Center= -3.9D-11, -3.9D-11,  2.0D-01, r^2= 2.1D+00
   Bfn.  Coefficient  Atom+Function         Bfn.  Coefficient  Atom+Function  
  ----- ------------  ---------------      ----- ------------  ---------------
    21      1.958348  1 O  dxy               46     -1.068615  2 C  dxy        
    40      0.109562  2 C  dxy        

 Vector   30  Occ=0.000000D+00  E= 9.692752D-01
              MO Center= -1.2D-12, -1.2D-12, -2.0D-01, r^2= 2.1D+00
   Bfn.  Coefficient  Atom+Function         Bfn.  Coefficient  Atom+Function  
  ----- ------------  ---------------      ----- ------------  ---------------
    22      1.171091  1 O  dxz               24     -1.171150  1 O  dyz        
    11      0.661860  1 O  px                12     -0.661893  1 O  py         
     8     -0.388161  1 O  px                 9      0.388181  1 O  py         
    36     -0.348065  2 C  px                37      0.348082  2 C  py         
    30     -0.345540  2 C  px                31      0.345557  2 C  py         

 Vector   31  Occ=0.000000D+00  E= 9.692752D-01
              MO Center= -6.8D-10, -6.8D-10, -2.0D-01, r^2= 2.1D+00
   Bfn.  Coefficient  Atom+Function         Bfn.  Coefficient  Atom+Function  
  ----- ------------  ---------------      ----- ------------  ---------------
    22      1.171150  1 O  dxz               24      1.171091  1 O  dyz        
    11      0.661893  1 O  px                12      0.661860  1 O  py         
     8     -0.388181  1 O  px                 9     -0.388161  1 O  py         
    36     -0.348082  2 C  px                37     -0.348065  2 C  py         
    30     -0.345557  2 C  px                31     -0.345540  2 C  py         

 Vector   32  Occ=0.000000D+00  E= 1.054744D+00
              MO Center=  5.4D-10,  5.4D-10, -3.4D-01, r^2= 2.7D+00
   Bfn.  Coefficient  Atom+Function         Bfn.  Coefficient  Atom+Function  
  ----- ------------  ---------------      ----- ------------  ---------------
     4      5.075120  1 O  s                 29     -1.985502  2 C  s          
    25     -1.389308  1 O  dzz               20     -1.227460  1 O  dxx        
    23     -1.227460  1 O  dyy               38      0.733133  2 C  pz         
    10      0.728738  1 O  pz                13      0.655795  1 O  pz         
     7     -0.580494  1 O  pz                45     -0.574252  2 C  dxx        

 Vector   33  Occ=0.000000D+00  E= 1.290583D+00
              MO Center= -1.6D-10, -1.6D-10,  4.1D-01, r^2= 2.9D+00
   Bfn.  Coefficient  Atom+Function         Bfn.  Coefficient  Atom+Function  
  ----- ------------  ---------------      ----- ------------  ---------------
    35      6.733043  2 C  pz                 4      5.601532  1 O  s          
    28     -5.438185  2 C  s                  3      4.391383  1 O  s          
    50     -3.948126  2 C  dzz               20      2.029125  1 O  dxx        
    23      2.029125  1 O  dyy               10      1.409797  1 O  pz         
[...]
     Total Oscillator Strength                     0.0271875563

     Occ.    1  a   ---  Virt.   10  a       -0.05476
     Occ.    1  a   ---  Virt.   11  a        0.06027
     Occ.    1  a   ---  Virt.   14  a       -0.08004
     Occ.    1  a   ---  Virt.   20  a        0.80481
     Occ.    1  a   ---  Virt.   21  a       -0.48710
     Occ.    1  a   ---  Virt.   24  a       -0.07365
     Occ.    1  a   ---  Virt.   27  a       -0.27819
     Occ.    1  a   ---  Virt.   32  a        0.12073
  ----------------------------------------------------------------------------
  Root  14 singlet a             20.046701460 a.u.              545.4987 eV 
  ----------------------------------------------------------------------------
     Transition Moments    X  0.00000   Y  0.00000   Z -0.00828
     Transition Moments   XX  0.00029  XY  0.00000  XZ -0.00000
     Transition Moments   YY  0.00029  YZ -0.00000  ZZ -0.00232
     Dipole Oscillator Strength                    0.0009164961
     Electric Quadrupole                           0.0000000972
     Magnetic Dipole                               0.0000000000
     Total Oscillator Strength                     0.0009165933

     Occ.    1  a   ---  Virt.   20  a        0.52444
     Occ.    1  a   ---  Virt.   21  a        0.84437
     Occ.    1  a   ---  Virt.   24  a        0.08316
  ----------------------------------------------------------------------------
  Root  15 singlet a             20.084333338 a.u.              546.5227 eV 
  ----------------------------------------------------------------------------
     Transition Moments    X -0.01319   Y  0.01319   Z -0.00000
     Transition Moments   XX -0.00000  XY -0.00000  XZ  0.00167
     Transition Moments   YY  0.00000  YZ -0.00167  ZZ  0.00000
     Dipole Oscillator Strength                    0.0046616674
     Electric Quadrupole                           0.0000002411
     Magnetic Dipole                               0.0000000054
     Total Oscillator Strength                     0.0046619139

     Occ.    1  a   ---  Virt.    8  a        0.09012
     Occ.    1  a   ---  Virt.   12  a       -0.06306
     Occ.    1  a   ---  Virt.   15  a        0.09950
     Occ.    1  a   ---  Virt.   22  a        0.98598
     Occ.    1  a   ---  Virt.   34  a       -0.07562
  ----------------------------------------------------------------------------
  Root  16 singlet a             20.084333338 a.u.              546.5227 eV 
  ----------------------------------------------------------------------------
     Transition Moments    X -0.01319   Y -0.01319   Z -0.00000
     Transition Moments   XX -0.00000  XY -0.00000  XZ  0.00167
     Transition Moments   YY -0.00000  YZ  0.00167  ZZ -0.00000
     Dipole Oscillator Strength                    0.0046616674
     Electric Quadrupole                           0.0000002411
     Magnetic Dipole                               0.0000000054
     Total Oscillator Strength                     0.0046619139

     Occ.    1  a   ---  Virt.    9  a        0.09012
     Occ.    1  a   ---  Virt.   13  a       -0.06306
     Occ.    1  a   ---  Virt.   16  a        0.09950
     Occ.    1  a   ---  Virt.   23  a        0.98598
     Occ.    1  a   ---  Virt.   35  a       -0.07562
  ----------------------------------------------------------------------------
  Root  17 singlet a             20.169256146 a.u.              548.8336 eV 
  ----------------------------------------------------------------------------
     Transition Moments    X -0.00000   Y -0.00000   Z  0.01018
     Transition Moments   XX -0.00074  XY -0.00000  XZ -0.00000
     Transition Moments   YY -0.00074  YZ -0.00000  ZZ  0.00097
     Dipole Oscillator Strength                    0.0013926567
     Electric Quadrupole                           0.0000000423
     Magnetic Dipole                               0.0000000000
     Total Oscillator Strength                     0.0013926990

     Occ.    1  a   ---  Virt.   14  a       -0.08008
     Occ.    1  a   ---  Virt.   17  a       -0.06187
     Occ.    1  a   ---  Virt.   21  a        0.09701
     Occ.    1  a   ---  Virt.   24  a       -0.97341
     Occ.    1  a   ---  Virt.   27  a        0.15863
     Occ.    1  a   ---  Virt.   33  a        0.07606
  ----------------------------------------------------------------------------
  Root  18 singlet a             20.176451200 a.u.              549.0294 eV 
  ----------------------------------------------------------------------------
     Transition Moments    X  0.00687   Y -0.00686   Z  0.00000
     Transition Moments   XX -0.00000  XY -0.00000  XZ  0.00033
     Transition Moments   YY -0.00000  YZ -0.00033  ZZ  0.00000
     Dipole Oscillator Strength                    0.0012677422
     Electric Quadrupole                           0.0000000097
     Magnetic Dipole                               0.0000000014
     Total Oscillator Strength                     0.0012677532

     Occ.    1  a   ---  Virt.   12  a       -0.05507
     Occ.    1  a   ---  Virt.   25  a        0.99520
     Occ.    1  a   ---  Virt.   30  a       -0.05320
  ----------------------------------------------------------------------------
  Root  19 singlet a             20.176451200 a.u.              549.0294 eV 
  ----------------------------------------------------------------------------
     Transition Moments    X  0.00686   Y  0.00687   Z  0.00000
     Transition Moments   XX -0.00000  XY  0.00000  XZ  0.00033
     Transition Moments   YY -0.00000  YZ  0.00033  ZZ  0.00000
     Dipole Oscillator Strength                    0.0012677422
     Electric Quadrupole                           0.0000000097
     Magnetic Dipole                               0.0000000014
     Total Oscillator Strength                     0.0012677532

     Occ.    1  a   ---  Virt.   13  a       -0.05507
     Occ.    1  a   ---  Virt.   26  a        0.99520
     Occ.    1  a   ---  Virt.   31  a       -0.05320
  ----------------------------------------------------------------------------
  Root  20 singlet a             20.239004469 a.u.              550.7316 eV 
  ----------------------------------------------------------------------------
     Transition Moments    X  0.00000   Y  0.00000   Z -0.03097
     Transition Moments   XX -0.00455  XY  0.00000  XZ -0.00000
     Transition Moments   YY -0.00455  YZ -0.00000  ZZ  0.00181
     Dipole Oscillator Strength                    0.0129414008
     Electric Quadrupole                           0.0000005959
     Magnetic Dipole                               0.0000000000
     Total Oscillator Strength                     0.0129419967

     Occ.    1  a   ---  Virt.   17  a        0.07520
     Occ.    1  a   ---  Virt.   20  a        0.25073
     Occ.    1  a   ---  Virt.   21  a       -0.17249
     Occ.    1  a   ---  Virt.   24  a        0.12759
     Occ.    1  a   ---  Virt.   27  a        0.93288
     Occ.    1  a   ---  Virt.   32  a       -0.08791
     Occ.    1  a   ---  Virt.   41  a        0.06958
  ----------------------------------------------------------------------------
  Root  21 singlet a             20.405662443 a.u.              555.2666 eV 
  ----------------------------------------------------------------------------
     Transition Moments    X -0.00000   Y -0.00000   Z -0.00000
     Transition Moments   XX -0.00352  XY  0.00000  XZ -0.00000
     Transition Moments   YY  0.00352  YZ  0.00000  ZZ -0.00000
     Dipole Oscillator Strength                    0.0000000000
     Electric Quadrupole                           0.0000005600
     Magnetic Dipole                               0.0000000000
     Total Oscillator Strength                     0.0000005600

     Occ.    1  a   ---  Virt.   18  a       -0.08366
     Occ.    1  a   ---  Virt.   28  a        0.99584
  ----------------------------------------------------------------------------
  Root  22 singlet a             20.405662503 a.u.              555.2666 eV 
  ----------------------------------------------------------------------------
     Transition Moments    X  0.00000   Y  0.00000   Z  0.00000
     Transition Moments   XX  0.00000  XY  0.00352  XZ  0.00000
     Transition Moments   YY -0.00000  YZ  0.00000  ZZ  0.00000
     Dipole Oscillator Strength                    0.0000000000
     Electric Quadrupole                           0.0000005600
     Magnetic Dipole                               0.0000000000
     Total Oscillator Strength                     0.0000005600

     Occ.    1  a   ---  Virt.   19  a        0.08366
     Occ.    1  a   ---  Virt.   29  a       -0.99584
  ----------------------------------------------------------------------------
  Root  23 singlet a             20.487655986 a.u.              557.4977 eV 
  ----------------------------------------------------------------------------
     Transition Moments    X  0.03118   Y -0.03118   Z -0.00000
     Transition Moments   XX  0.00000  XY  0.00000  XZ  0.00161
     Transition Moments   YY -0.00000  YZ -0.00161  ZZ  0.00000
     Dipole Oscillator Strength                    0.0265543029
     Electric Quadrupole                           0.0000002389
     Magnetic Dipole                               0.0000000364
     Total Oscillator Strength                     0.0265545782

     Occ.    1  a   ---  Virt.   15  a       -0.07975
     Occ.    1  a   ---  Virt.   25  a       -0.06057
     Occ.    1  a   ---  Virt.   30  a       -0.98254
     Occ.    1  a   ---  Virt.   34  a        0.14536
  ----------------------------------------------------------------------------
  Root  24 singlet a             20.487655986 a.u.              557.4977 eV 
  ----------------------------------------------------------------------------
     Transition Moments    X -0.03118   Y -0.03118   Z -0.00000
     Transition Moments   XX  0.00000  XY -0.00000  XZ -0.00161
     Transition Moments   YY  0.00000  YZ -0.00161  ZZ -0.00000
     Dipole Oscillator Strength                    0.0265543029
     Electric Quadrupole                           0.0000002389
     Magnetic Dipole                               0.0000000364
     Total Oscillator Strength                     0.0265545782

     Occ.    1  a   ---  Virt.   16  a        0.07975
     Occ.    1  a   ---  Virt.   26  a        0.06057
     Occ.    1  a   ---  Virt.   31  a        0.98254
     Occ.    1  a   ---  Virt.   35  a       -0.14536
  ----------------------------------------------------------------------------
  Root  25 singlet a             20.565555694 a.u.              559.6175 eV 
  ----------------------------------------------------------------------------
     Transition Moments    X  0.00000   Y  0.00000   Z -0.05390
     Transition Moments   XX  0.00327  XY  0.00000  XZ  0.00000
     Transition Moments   YY  0.00327  YZ  0.00000  ZZ -0.00395
     Dipole Oscillator Strength                    0.0398368992
     Electric Quadrupole                           0.0000008057
     Magnetic Dipole                               0.0000000000
     Total Oscillator Strength                     0.0398377049

     Occ.    1  a   ---  Virt.   17  a       -0.06678
     Occ.    1  a   ---  Virt.   20  a        0.07056
     Occ.    1  a   ---  Virt.   21  a       -0.07003
     Occ.    1  a   ---  Virt.   27  a       -0.12042
     Occ.    1  a   ---  Virt.   32  a       -0.97665
     Occ.    1  a   ---  Virt.   33  a       -0.07609
     Occ.    1  a   ---  Virt.   41  a        0.06078
  ----------------------------------------------------------------------------
  Root  26 singlet a             20.851013366 a.u.              567.3852 eV 
  ----------------------------------------------------------------------------
     Transition Moments    X  0.00000   Y  0.00000   Z -0.02145
     Transition Moments   XX -0.00166  XY  0.00000  XZ -0.00000
     Transition Moments   YY -0.00166  YZ -0.00000  ZZ -0.00512
     Dipole Oscillator Strength                    0.0063928334
     Electric Quadrupole                           0.0000001925
     Magnetic Dipole                               0.0000000000
     Total Oscillator Strength                     0.0063930259

     Occ.    1  a   ---  Virt.   24  a       -0.08685
     Occ.    1  a   ---  Virt.   32  a        0.09240
     Occ.    1  a   ---  Virt.   33  a       -0.98423
     Occ.    1  a   ---  Virt.   38  a        0.09747
  ----------------------------------------------------------------------------
  Root  27 singlet a             20.851431525 a.u.              567.3966 eV 
  ----------------------------------------------------------------------------
     Transition Moments    X  0.04038   Y -0.04038   Z -0.00000
     Transition Moments   XX -0.00000  XY -0.00000  XZ -0.00200
     Transition Moments   YY -0.00000  YZ  0.00200  ZZ -0.00000
     Dipole Oscillator Strength                    0.0453306539
     Electric Quadrupole                           0.0000003847
     Magnetic Dipole                               0.0000000565
     Total Oscillator Strength                     0.0453310952

     Occ.    1  a   ---  Virt.    8  a       -0.05084
     Occ.    1  a   ---  Virt.   22  a        0.08476
     Occ.    1  a   ---  Virt.   30  a        0.15397
     Occ.    1  a   ---  Virt.   34  a        0.98129
  ----------------------------------------------------------------------------
  Root  28 singlet a             20.851431525 a.u.              567.3966 eV 
  ----------------------------------------------------------------------------
     Transition Moments    X  0.04038   Y  0.04038   Z  0.00000
     Transition Moments   XX  0.00000  XY  0.00000  XZ -0.00200
     Transition Moments   YY  0.00000  YZ -0.00200  ZZ  0.00000
     Dipole Oscillator Strength                    0.0453306539
     Electric Quadrupole                           0.0000003847
     Magnetic Dipole                               0.0000000565
     Total Oscillator Strength                     0.0453310952

     Occ.    1  a   ---  Virt.    9  a       -0.05084
     Occ.    1  a   ---  Virt.   23  a        0.08476
     Occ.    1  a   ---  Virt.   31  a        0.15397
     Occ.    1  a   ---  Virt.   35  a        0.98129
  ----------------------------------------------------------------------------
  Root  29 singlet a             21.018777512 a.u.              571.9503 eV 
  ----------------------------------------------------------------------------
     Transition Moments    X -0.00000   Y  0.00000   Z -0.00000
     Transition Moments   XX  0.00046  XY -0.00000  XZ  0.00000
     Transition Moments   YY -0.00046  YZ -0.00000  ZZ -0.00000
     Dipole Oscillator Strength                    0.0000000000
     Electric Quadrupole                           0.0000000104
     Magnetic Dipole                               0.0000000000
     Total Oscillator Strength                     0.0000000104

     Occ.    1  a   ---  Virt.   36  a       -0.99985
  ----------------------------------------------------------------------------
  Root  30 singlet a             21.018777621 a.u.              571.9503 eV 
  ----------------------------------------------------------------------------
     Transition Moments    X -0.00000   Y -0.00000   Z -0.00000
     Transition Moments   XX  0.00000  XY  0.00046  XZ  0.00000
     Transition Moments   YY -0.00000  YZ -0.00000  ZZ  0.00000
     Dipole Oscillator Strength                    0.0000000000
     Electric Quadrupole                           0.0000000104
     Magnetic Dipole                               0.0000000000
     Total Oscillator Strength                     0.0000000104

     Occ.    1  a   ---  Virt.   37  a       -0.99985

              Target root =      1
          Target symmetry = none
      Ground state energy =   -112.589218879527
        Excitation energy =     19.460735225084
     Excited state energy =    -93.128483654443

  stored tddft:energy   -93.128483654443059     

 Task  times  cpu:       67.3s     wall:       75.6s


                                NWChem Input Module
                                -------------------


 Summary of allocated global arrays
-----------------------------------
  No active global arrays



                         GA Statistics for process    0
                         ------------------------------

       create   destroy   get      put      acc     scatter   gather  read&inc
calls: 1276     1276     3.09e+05 5.42e+04 1.72e+05  374        0     1256     
number of processes/call -2.08e+13 1.61e+13 -1.31e+13 0.00e+00 0.00e+00
bytes total:             4.06e+08 3.80e+07 4.29e+08 6.80e+03 0.00e+00 1.00e+04
bytes remote:            9.76e+07 3.61e+06 3.07e+08 -1.32e+04 0.00e+00 0.00e+00
Max memory consumed for GA by this process: 18108240 bytes

MA_summarize_allocated_blocks: starting scan ...
heap block 'gridpts', handle 77, address 0x5576e9adbc28:
	type of elements:		double precision
	number of elements:		12912224
	address of client space:	0x5576e9adbc80
	index for client space:		8698987
	total number of bytes:		103297888
MA_summarize_allocated_blocks: scan completed: 1 heap block, 0 stack blocks
MA usage statistics:

	allocation statistics:
					      heap	     stack
					      ----	     -----
	current number of blocks	         1	         0
	maximum number of blocks	        24	        53
	current total bytes		 103297888	         0
	maximum total bytes		 109244560	  32869688
	maximum total K-bytes		    109245	     32870
	maximum total M-bytes		       110	        33


                                     CITATION
                                     --------
                Please cite the following reference when publishing
                           results obtained with NWChem:

                 M. Valiev, E.J. Bylaska, N. Govind, K. Kowalski,
              T.P. Straatsma, H.J.J. van Dam, D. Wang, J. Nieplocha,
                        E. Apra, T.L. Windus, W.A. de Jong
                 "NWChem: a comprehensive and scalable open-source
                  solution for large scale molecular simulations"
                      Comput. Phys. Commun. 181, 1477 (2010)
                           doi:10.1016/j.cpc.2010.04.018

                                      AUTHORS
                                      -------
          E. Apra, E. J. Bylaska, W. A. de Jong, N. Govind, K. Kowalski,
       T. P. Straatsma, M. Valiev, H. J. J. van Dam, D. Wang, T. L. Windus,
        J. Hammond, J. Autschbach, K. Bhaskaran-Nair, J. Brabec, K. Lopata,
    S. A. Fischer, S. Krishnamoorthy, M. Jacquelin, W. Ma, M. Klemm, O. Villa,
      Y. Chen, V. Anisimov, F. Aquino, S. Hirata, M. T. Hackler, V. Konjkov,
            D. Mejia-Rodriguez, T. Risthaus, M. Malagoli, A. Marenich,
   A. Otero-de-la-Roza, J. Mullin, P. Nichols, R. Peverati, J. Pittner, Y. Zhao,
        P.-D. Fan, A. Fonari, M. J. Williamson, R. J. Harrison, J. R. Rehr,
      M. Dupuis, D. Silverstein, D. M. A. Smith, J. Nieplocha, V. Tipparaju,
    M. Krishnan, B. E. Van Kuiken, A. Vazquez-Mayagoitia, L. Jensen, M. Swart,
      Q. Wu, T. Van Voorhis, A. A. Auer, M. Nooijen, L. D. Crosby, E. Brown,
      G. Cisneros, G. I. Fann, H. Fruchtl, J. Garza, K. Hirao, R. A. Kendall,
      J. A. Nichols, K. Tsemekhman, K. Wolinski, J. Anchell, D. E. Bernholdt,
      P. Borowski, T. Clark, D. Clerc, H. Dachsel, M. J. O. Deegan, K. Dyall,
    D. Elwood, E. Glendening, M. Gutowski, A. C. Hess, J. Jaffe, B. G. Johnson,
     J. Ju, R. Kobayashi, R. Kutteh, Z. Lin, R. Littlefield, X. Long, B. Meng,
      T. Nakajima, S. Niu, L. Pollack, M. Rosing, K. Glaesemann, G. Sandrone,
      M. Stave, H. Taylor, G. Thomas, J. H. van Lenthe, A. T. Wong, Z. Zhang.
       Aggregate GFloating-point ops:   37.08    
        Aggregate GFLOPS (Real_time):  0.2905    
        Aggregate GFLOPS (Proc_time):  0.2909    
                    Average   GFLOPS:  9.6841E-02
                    Max       GFLOPS:  0.2176    
                    Min       GFLOPS:  3.5891E-02

 Total times  cpu:      127.4s     wall:      127.6s
