 argument  1 = sad_ch3hf_dft.nw



============================== echo of input deck ==============================
title "Find the saddle point for CH3 + HF <-> CH4 + F with DFT"

echo

start ch3hf_dft_

geometry
  c    0.000   0.000  -1.220
  h    0.000   0.000   0.029
  h    1.063   0.000  -1.407
  h   -0.531  -0.921  -1.407
  h   -0.531   0.921  -1.407
  f    0.000   0.000   1.279
end

basis
  c library 3-21g; h library 3-21g; f library 3-21g
end

dft; mult 2; xc b3lyp; smear; direct; end

driver
 xyz
end

task dft saddle

task dft freq
================================================================================


                                         
                                         


              Northwest Computational Chemistry Package (NWChem) 6.8
              ------------------------------------------------------


                    Environmental Molecular Sciences Laboratory
                       Pacific Northwest National Laboratory
                                Richland, WA 99352

                              Copyright (c) 1994-2017
                       Pacific Northwest National Laboratory
                            Battelle Memorial Institute

             NWChem is an open-source computational chemistry package
                        distributed under the terms of the
                      Educational Community License (ECL) 2.0
             A copy of the license is included with this distribution
                              in the LICENSE.TXT file

                                  ACKNOWLEDGMENT
                                  --------------

            This software and its documentation were developed at the
            EMSL at Pacific Northwest National Laboratory, a multiprogram
            national laboratory, operated for the U.S. Department of Energy
            by Battelle under Contract Number DE-AC05-76RL01830. Support
            for this work was provided by the Department of Energy Office
            of Biological and Environmental Research, Office of Basic
            Energy Sciences, and the Office of Advanced Scientific Computing.


           Job information
           ---------------

    hostname        = we27962
    program         = nwchem
    date            = Thu Jul 18 12:13:38 2019

    compiled        = Wed_May_08_06:34:57_2019
    source          = /private/tmp/nwchem-20190508-56834-1ym41g7/nwchem-6.8.1
    nwchem branch   = 6.8.1
    nwchem revision = v6.8-133-ge032219
    ga revision     = 5.6.5
    use scalapack   = T
    input           = sad_ch3hf_dft.nw
    prefix          = ch3hf_dft_.
    data base       = ./ch3hf_dft_.db
    status          = startup
    nproc           =        2
    time left       =     -1s



           Memory information
           ------------------

    heap     =   13107196 doubles =    100.0 Mbytes
    stack    =   13107201 doubles =    100.0 Mbytes
    global   =   26214400 doubles =    200.0 Mbytes (distinct from heap & stack)
    total    =   52428797 doubles =    400.0 Mbytes
    verify   = yes
    hardfail = no 


           Directory information
           ---------------------

  0 permanent = .
  0 scratch   = .




                                NWChem Input Module
                                -------------------


              Find the saddle point for CH3 + HF <-> CH4 + F with DFT
              -------------------------------------------------------

 Scaling coordinates for geometry "geometry" by  1.889725989
 (inverse scale =  0.529177249)

 C3V symmetry detected

          ------
          auto-z
          ------
  autoz: The atoms group into disjoint clusters
 cluster   1:    1    2    3    4    5
 cluster   2:    6
 Connecting clusters   1   2 via atoms    2    6 r = 1.25
  autoz: regenerating connections with new bonds
  Looking for out-of-plane bends


                             Geometry "geometry" -> ""
                             -------------------------

 Output coordinates in angstroms (scale by  1.889725989 to convert to a.u.)

  No.       Tag          Charge          X              Y              Z
 ---- ---------------- ---------- -------------- -------------- --------------
    1 c                    6.0000     0.00000000     0.00000000    -1.21994737
    2 h                    1.0000     0.00000000    -0.00000000     0.02905263
    3 h                    1.0000     0.75170608     0.75170608    -1.40694738
    4 h                    1.0000     0.27514352    -1.02684960    -1.40694738
    5 h                    1.0000    -1.02684960     0.27514352    -1.40694738
    6 f                    9.0000     0.00000000     0.00000000     1.27905263

      Atomic Mass 
      ----------- 

      c                 12.000000
      h                  1.007825
      f                 18.998400


 Effective nuclear repulsion energy (a.u.)      33.3083049854

            Nuclear Dipole moment (a.u.) 
            ----------------------------
        X                 Y               Z
 ---------------- ---------------- ----------------
     0.0000000000     0.0000000000     0.0000000000

      Symmetry information
      --------------------

 Group name             C3v       
 Group number             17
 Group order               6
 No. of unique centers     4

      Symmetry unique atoms

     1    2    3    6



                                Z-matrix (autoz)
                                -------- 

 Units are Angstrom for bonds and degrees for angles

      Type          Name      I     J     K     L     M      Value
      ----------- --------  ----- ----- ----- ----- ----- ----------
    1 Stretch                  1     2                       1.24900
    2 Stretch                  1     3                       1.07939
    3 Stretch                  1     4                       1.07939
    4 Stretch                  1     5                       1.07939
    5 Stretch                  2     6                       1.25000
    6 Bend                     2     1     3                99.97656
    7 Bend                     2     1     4                99.97656
    8 Bend                     2     1     5                99.97656
    9 Bend                     3     1     4               117.06359
   10 Bend                     3     1     5               117.06359
   11 Bend                     4     1     5               117.06359
   12 Bend                     6     1     3                99.97656
   13 Bend                     6     1     4                99.97656
   14 Bend                     6     1     5                99.97656
   15 Torsion                  1     3     2     6        -180.00000
   16 Torsion                  1     4     2     6         180.00000
   17 Torsion                  1     5     2     6        -180.00000


            XYZ format geometry
            -------------------
     6
 geometry
 c                     0.00000000     0.00000000    -1.21994737
 h                     0.00000000    -0.00000000     0.02905263
 h                     0.75170608     0.75170608    -1.40694738
 h                     0.27514352    -1.02684960    -1.40694738
 h                    -1.02684960     0.27514352    -1.40694738
 f                     0.00000000     0.00000000     1.27905263

 ==============================================================================
                                internuclear distances
 ------------------------------------------------------------------------------
       center one      |      center two      | atomic units |  angstroms
 ------------------------------------------------------------------------------
    3 h                |   1 c                |     2.03976  |     1.07939
    4 h                |   1 c                |     2.03976  |     1.07939
    5 h                |   1 c                |     2.03976  |     1.07939
 ------------------------------------------------------------------------------
                         number of included internuclear distances:          3
 ==============================================================================



 ==============================================================================
                                 internuclear angles
 ------------------------------------------------------------------------------
        center 1       |       center 2       |       center 3       |  degrees
 ------------------------------------------------------------------------------
    3 h                |   1 c                |   4 h                |   117.06
    3 h                |   1 c                |   5 h                |   117.06
    4 h                |   1 c                |   5 h                |   117.06
 ------------------------------------------------------------------------------
                            number of included internuclear angles:          3
 ==============================================================================



  library name resolved from: .nwchemrc
  library file name is: </usr/local/Cellar/nwchem/6.8.1_7/share/nwchem/libraries/>
  
                      Basis "ao basis" -> "" (cartesian)
                      -----
  c (Carbon)
  ----------
            Exponent  Coefficients 
       -------------- ---------------------------------------------------------
  1 S  1.72256000E+02  0.061767
  1 S  2.59109000E+01  0.358794
  1 S  5.53335000E+00  0.700713

  2 S  3.66498000E+00 -0.395897
  2 S  7.70545000E-01  1.215840

  3 P  3.66498000E+00  0.236460
  3 P  7.70545000E-01  0.860619

  4 S  1.95857000E-01  1.000000

  5 P  1.95857000E-01  1.000000

  h (Hydrogen)
  ------------
            Exponent  Coefficients 
       -------------- ---------------------------------------------------------
  1 S  5.44717800E+00  0.156285
  1 S  8.24547000E-01  0.904691

  2 S  1.83192000E-01  1.000000

  f (Fluorine)
  ------------
            Exponent  Coefficients 
       -------------- ---------------------------------------------------------
  1 S  4.13801000E+02  0.058548
  1 S  6.22446000E+01  0.349308
  1 S  1.34340000E+01  0.709632

  2 S  9.77759000E+00 -0.407327
  2 S  2.08617000E+00  1.223140

  3 P  9.77759000E+00  0.246680
  3 P  2.08617000E+00  0.852321

  4 S  4.82383000E-01  1.000000

  5 P  4.82383000E-01  1.000000



 Summary of "ao basis" -> "" (cartesian)
 ------------------------------------------------------------------------------
       Tag                 Description            Shells   Functions and Types
 ---------------- ------------------------------  ------  ---------------------
 c                           3-21g                   5        9   3s2p
 h                           3-21g                   2        2   2s
 f                           3-21g                   5        9   3s2p


   smearing value not found; defaulting to 1d-3 Hartree.


                           NWChem Geometry Optimization
                           ----------------------------




              Find the saddle point for CH3 + HF <-> CH4 + F with DFT


 maximum gradient threshold         (gmax) =   0.000450
 rms gradient threshold             (grms) =   0.000300
 maximum cartesian step threshold   (xmax) =   0.001800
 rms cartesian step threshold       (xrms) =   0.001200
 fixed trust radius                (trust) =   0.100000
 maximum step size to saddle      (sadstp) =   0.100000
 energy precision                  (eprec) =   5.0D-06
 maximum number of steps          (nptopt) =   20
 initial hessian option           (inhess) =    0
 line search option               (linopt) =    0
 hessian update option            (modupd) =    2
 saddle point option              (modsad) =    1
 initial eigen-mode to follow     (moddir) =    0
 initial variable to follow       (vardir) =    0
 follow first negative mode     (firstneg) =    T
 apply conjugacy                    (opcg) =    F
 source of zmatrix                         =   autoz   


          -----------------------
          Transition State Search
          -----------------------


 Names of Z-matrix variables 
    1              2              3              4              5         
    6              7              8              9             10         
   11             12             13             14             15         
   16             17         

 Variables with the same non-blank name are constrained to be equal


 Using old Hessian from previous optimization

          --------
          Step   0
          --------


                         Geometry "geometry" -> "geometry"
                         ---------------------------------

 Output coordinates in angstroms (scale by  1.889725989 to convert to a.u.)

  No.       Tag          Charge          X              Y              Z
 ---- ---------------- ---------- -------------- -------------- --------------
    1 c                    6.0000     0.00000000     0.00000000    -1.21994737
    2 h                    1.0000     0.00000000    -0.00000000     0.02905263
    3 h                    1.0000     0.75170608     0.75170608    -1.40694738
    4 h                    1.0000     0.27514352    -1.02684960    -1.40694738
    5 h                    1.0000    -1.02684960     0.27514352    -1.40694738
    6 f                    9.0000     0.00000000     0.00000000     1.27905263

      Atomic Mass 
      ----------- 

      c                 12.000000
      h                  1.007825
      f                 18.998400


 Effective nuclear repulsion energy (a.u.)      33.3083049854

            Nuclear Dipole moment (a.u.) 
            ----------------------------
        X                 Y               Z
 ---------------- ---------------- ----------------
     0.0000000000     0.0000000000     0.0000000000

      Symmetry information
      --------------------

 Group name             C3v       
 Group number             17
 Group order               6
 No. of unique centers     4

      Symmetry unique atoms

     1    2    3    6


                                 NWChem DFT Module
                                 -----------------


              Find the saddle point for CH3 + HF <-> CH4 + F with DFT




 Summary of "ao basis" -> "ao basis" (cartesian)
 ------------------------------------------------------------------------------
       Tag                 Description            Shells   Functions and Types
 ---------------- ------------------------------  ------  ---------------------
 c                           3-21g                   5        9   3s2p
 h                           3-21g                   2        2   2s
 f                           3-21g                   5        9   3s2p


      Symmetry analysis of basis
      --------------------------

        a1         14
        a2          0
        e          12

  Caching 1-el integrals 
  Rotation of axis 

            General Information
            -------------------
          SCF calculation type: DFT
          Wavefunction type:  spin polarized.
          No. of atoms     :     6
          No. of electrons :    19
           Alpha electrons :    10
            Beta electrons :     9
          Charge           :     0
          Spin multiplicity:     2
          Use of symmetry is: on ; symmetry adaption is: on 
          Maximum number of iterations:  30
          This is a Direct SCF calculation.
          AO basis - number of functions:    26
                     number of shells:    18
          Convergence on energy requested:  1.00D-06
          Convergence on density requested:  1.00D-05
          Convergence on gradient requested:  5.00D-04

              XC Information
              --------------
                         B3LYP Method XC Potential
                     Hartree-Fock (Exact) Exchange  0.200          
                        Slater Exchange Functional  0.800 local    
                    Becke 1988 Exchange Functional  0.720 non-local
              Lee-Yang-Parr Correlation Functional  0.810          
                  VWN I RPA Correlation Functional  0.190 local    

             Grid Information
             ----------------
          Grid used for XC integration:  medium    
          Radial quadrature: Mura-Knowles        
          Angular quadrature: Lebedev. 
          Tag              B.-S. Rad. Rad. Pts. Rad. Cut. Ang. Pts.
          ---              ---------- --------- --------- ---------
          c                   0.70       49           6.0       434
          h                   0.35       45           6.0       434
          f                   0.50       49           8.0       434
          Grid pruning is: on 
          Number of quadrature shells:   188
          Spatial weights used:  Erf1

          Convergence Information
          -----------------------
          Convergence aids based upon iterative change in 
          total energy or number of iterations. 
          Levelshifting, if invoked, occurs when the 
          HOMO/LUMO gap drops below (HL_TOL):  1.00D-02
          DIIS, if invoked, will attempt to extrapolate 
          using up to (NFOCK): 10 stored Fock matrices.

                    Damping( 0%)  Levelshifting(0.5)       DIIS
                  --------------- ------------------- ---------------
          dE  on:    start            ASAP                start   
          dE off:    2 iters         30 iters            30 iters 

          Smearing applied:  0.10D-02 (hartree)

      Screening Tolerance Information
      -------------------------------
          Density screening/tol_rho:  1.00D-10
          AO Gaussian exp screening on grid/accAOfunc:  14
          CD Gaussian exp screening on grid/accCDfunc:  20
          XC Gaussian exp screening on grid/accXCfunc:  20
          Schwarz screening/accCoul:  1.00D-08


      Superposition of Atomic Density Guess
      -------------------------------------

 Sum of atomic energies:        -138.30591267

      Non-variational initial energy
      ------------------------------

 Total energy =    -138.654389
 1-e energy   =    -256.663883
 2-e energy   =      84.701189
 HOMO         =      -0.306976
 LUMO         =       0.199486


   Symmetry analysis of molecular orbitals - initial alpha
   -------------------------------------------------------

  Numbering of irreducible representations: 

     1 a1          2 a2          3 e       

  Orbital symmetries:

     1 a1          2 a1          3 a1          4 a1          5 a1      
     6 e           7 e           8 e           9 e          10 a1      
    11 a1         12 e          13 e          14 a1         15 e       
    16 e          17 a1         18 a1         19 a1         20 e       


   Symmetry analysis of molecular orbitals - initial beta
   ------------------------------------------------------

  Numbering of irreducible representations: 

     1 a1          2 a2          3 e       

  Orbital symmetries:

     1 a1          2 a1          3 a1          4 a1          5 a1      
     6 e           7 e           8 e           9 e          10 a1      
    11 a1         12 e          13 e          14 a1         15 e       
    16 e          17 a1         18 a1         19 a1         20 e       

   Time after variat. SCF:      0.2
   Time prior to 1st pass:      0.2

 Grid_pts file          = ./ch3hf_dft_.gridpts.0
 Record size in doubles =  12289        No. of grid_pts per rec  =   3070
 Max. records in memory =     16        Max. recs in file   =    136191

 sigma=  0.10D-02 eFermi= -0.05511 T*S= -5.64E-04 nel(1)=   10.00 nel(2)=    9.00


           Memory utilization after 1st SCF pass: 
           Heap Space remaining (MW):       12.91            12908836
          Stack Space remaining (MW):       13.11            13106732

   convergence    iter        energy       DeltaE   RMS-Dens  Diis-err    time
 ---------------- ----- ----------------- --------- --------- ---------  ------
 d= 0,ls=0.0,diis     1   -139.3892607002 -1.73D+02  2.61D-02  1.35D-01     0.4
                                                     4.65D-02  1.67D-01
 sigma=  0.10D-02 eFermi=  0.03373 T*S=  0.00E+00 nel(1)=   10.00 nel(2)=    9.00

 d= 0,ls=0.0,diis     2   -138.9980321296  3.91D-01  1.77D-02  1.06D+00     0.5
                                                     4.69D-02  7.30D-01
 sigma=  0.10D-02 eFermi=  0.02831 T*S=  0.00E+00 nel(1)=   10.00 nel(2)=    9.00

 d= 0,ls=0.0,diis     3   -139.4850269548 -4.87D-01  2.06D-03  1.93D-03     0.6
                                                     3.34D-03  3.47D-03
 sigma=  0.10D-02 eFermi=  0.02486 T*S=  0.00E+00 nel(1)=   10.00 nel(2)=    9.00

 d= 0,ls=0.0,diis     4   -139.4884104938 -3.38D-03  1.32D-03  2.43D-03     0.7
                                                     7.91D-04  1.64D-03
 sigma=  0.10D-02 eFermi=  0.01849 T*S=  0.00E+00 nel(1)=   10.00 nel(2)=    9.00

 d= 0,ls=0.0,diis     5   -139.4892487279 -8.38D-04  9.44D-04  8.00D-04     0.8
                                                     2.75D-04  3.92D-04
 sigma=  0.10D-02 eFermi=  0.01826 T*S=  0.00E+00 nel(1)=   10.00 nel(2)=    9.00

  Resetting Diis
 d= 0,ls=0.0,diis     6   -139.4894475925 -1.99D-04  4.51D-04  1.16D-04     0.9
                                                     2.76D-04  8.52D-05
 sigma=  0.10D-02 eFermi=  0.01872 T*S=  0.00E+00 nel(1)=   10.00 nel(2)=    9.00

 d= 0,ls=0.0,diis     7   -139.4895058762 -5.83D-05  8.00D-05  1.65D-06     0.9
                                                     8.41D-05  2.83D-06
 sigma=  0.10D-02 eFermi=  0.01847 T*S=  0.00E+00 nel(1)=   10.00 nel(2)=    9.00

 d= 0,ls=0.0,diis     8   -139.4895045067  1.37D-06  4.60D-05  6.83D-06     1.0
                                                     4.78D-05  5.85D-06
 sigma=  0.10D-02 eFermi=  0.01849 T*S=  0.00E+00 nel(1)=   10.00 nel(2)=    9.00

 d= 0,ls=0.0,diis     9   -139.4895069269 -2.42D-06  3.65D-06  1.22D-08     1.1
                                                     2.67D-06  4.05D-09
 sigma=  0.10D-02 eFermi=  0.01848 T*S=  0.00E+00 nel(1)=   10.00 nel(2)=    9.00

 d= 0,ls=0.0,diis    10   -139.4895069322 -5.33D-09  9.10D-07  2.08D-10     1.2
                                                     1.20D-06  1.03D-09


         Total DFT energy =     -139.489506932193
      One electron energy =     -258.457164550046
           Coulomb energy =      102.965474320563
    Exchange-Corr. energy =      -17.306121688145
 Nuclear repulsion energy =       33.308304985435

 Numeric. integr. density =       18.999993148152

     Total iterative time =      1.0s



                  Occupations of the irreducible representations
                  ----------------------------------------------

                     irrep           alpha         beta
                     --------     --------     --------
                     a1                6.0          5.0
                     a2                0.0          0.0
                     e                 4.0          4.0


                    DFT Final Alpha Molecular Orbital Analysis
                    ------------------------------------------

 Vector    1  Occ=1.000000D+00  E=-2.450124D+01  Symmetry=a1
              MO Center= -1.3D-21, -9.3D-22,  1.3D+00, r^2= 1.2D-02
   Bfn.  Coefficient  Atom+Function         Bfn.  Coefficient  Atom+Function  
  ----- ------------  ---------------      ----- ------------  ---------------
    18      0.981003  6 F  s                 19      0.101561  6 F  s          
    23     -0.036001  6 F  s          

 Vector    2  Occ=1.000000D+00  E=-1.015003D+01  Symmetry=a1
              MO Center=  4.4D-19,  4.0D-19, -1.2D+00, r^2= 2.8D-02
   Bfn.  Coefficient  Atom+Function         Bfn.  Coefficient  Atom+Function  
  ----- ------------  ---------------      ----- ------------  ---------------
     1      0.985998  1 C  s                  2      0.111287  1 C  s          
     6     -0.084806  1 C  s          

 Vector    3  Occ=1.000000D+00  E=-1.095509D+00  Symmetry=a1
              MO Center= -2.2D-17, -6.4D-17,  1.2D+00, r^2= 3.9D-01
   Bfn.  Coefficient  Atom+Function         Bfn.  Coefficient  Atom+Function  
  ----- ------------  ---------------      ----- ------------  ---------------
    23      0.789631  6 F  s                 18     -0.252518  6 F  s          
    19      0.247288  6 F  s                 10      0.055347  2 H  s          
    11      0.042151  2 H  s                 22     -0.040984  6 F  pz         
    26     -0.039147  6 F  pz         

 Vector    4  Occ=1.000000D+00  E=-7.351930D-01  Symmetry=a1
              MO Center= -1.5D-16, -1.7D-15, -1.1D+00, r^2= 1.1D+00
   Bfn.  Coefficient  Atom+Function         Bfn.  Coefficient  Atom+Function  
  ----- ------------  ---------------      ----- ------------  ---------------
     6      0.651417  1 C  s                  1     -0.213254  1 C  s          
     2      0.207441  1 C  s                 12      0.121547  3 H  s          
    14      0.121547  4 H  s                 16      0.121547  5 H  s          
    10      0.106677  2 H  s                 23     -0.093527  6 F  s          
    22     -0.048675  6 F  pz                26     -0.047196  6 F  pz         

 Vector    5  Occ=1.000000D+00  E=-4.815153D-01  Symmetry=a1
              MO Center=  6.0D-16,  1.9D-16,  4.2D-01, r^2= 1.9D+00
   Bfn.  Coefficient  Atom+Function         Bfn.  Coefficient  Atom+Function  
  ----- ------------  ---------------      ----- ------------  ---------------
    22      0.395695  6 F  pz                26      0.394268  6 F  pz         
    10     -0.209935  2 H  s                  5     -0.206096  1 C  pz         
    11     -0.191549  2 H  s                 23      0.191965  6 F  s          
     9     -0.169193  1 C  pz                 6      0.113249  1 C  s          
    12      0.064149  3 H  s                 14      0.064149  4 H  s          

 Vector    6  Occ=1.000000D+00  E=-4.442916D-01  Symmetry=e
              MO Center= -2.3D-01, -4.2D-02, -1.3D+00, r^2= 1.2D+00
   Bfn.  Coefficient  Atom+Function         Bfn.  Coefficient  Atom+Function  
  ----- ------------  ---------------      ----- ------------  ---------------
     3      0.352811  1 C  px                 7      0.267737  1 C  px         
    16     -0.255069  5 H  s                 17     -0.207562  5 H  s          
     4     -0.184535  1 C  py                14      0.176957  4 H  s          
    15      0.143998  4 H  s                  8     -0.140038  1 C  py         
    12      0.078112  3 H  s                 13      0.063564  3 H  s          

 Vector    7  Occ=1.000000D+00  E=-4.442916D-01  Symmetry=e
              MO Center=  2.3D-01,  4.2D-02, -1.3D+00, r^2= 1.2D+00
   Bfn.  Coefficient  Atom+Function         Bfn.  Coefficient  Atom+Function  
  ----- ------------  ---------------      ----- ------------  ---------------
     4      0.352811  1 C  py                 8      0.267737  1 C  py         
    12      0.249430  3 H  s                 13      0.202974  3 H  s          
    14     -0.192362  4 H  s                  3      0.184535  1 C  px         
    15     -0.156534  4 H  s                  7      0.140038  1 C  px         
    16     -0.057068  5 H  s                 17     -0.046439  5 H  s          

 Vector    8  Occ=1.000000D+00  E=-3.279559D-01  Symmetry=e
              MO Center=  1.7D-03, -3.4D-04,  1.3D+00, r^2= 4.3D-01
   Bfn.  Coefficient  Atom+Function         Bfn.  Coefficient  Atom+Function  
  ----- ------------  ---------------      ----- ------------  ---------------
    25      0.577287  6 F  py                21      0.529061  6 F  py         
    24      0.174885  6 F  px                20      0.160275  6 F  px         
     4     -0.035194  1 C  py                13     -0.034118  3 H  s          
    15      0.032866  4 H  s                 12     -0.025067  3 H  s          

 Vector    9  Occ=1.000000D+00  E=-3.279559D-01  Symmetry=e
              MO Center= -1.7D-03,  3.4D-04,  1.3D+00, r^2= 4.3D-01
   Bfn.  Coefficient  Atom+Function         Bfn.  Coefficient  Atom+Function  
  ----- ------------  ---------------      ----- ------------  ---------------
    24      0.577287  6 F  px                20      0.529061  6 F  px         
    25     -0.174885  6 F  py                21     -0.160275  6 F  py         
    17      0.038674  5 H  s                  3     -0.035194  1 C  px         
    16      0.028414  5 H  s          

 Vector   10  Occ=1.000000D+00  E=-2.996427D-01  Symmetry=a1
              MO Center=  1.5D-16, -7.0D-17, -2.4D-01, r^2= 2.2D+00
   Bfn.  Coefficient  Atom+Function         Bfn.  Coefficient  Atom+Function  
  ----- ------------  ---------------      ----- ------------  ---------------
     9      0.441706  1 C  pz                 5      0.404822  1 C  pz         
    26      0.394619  6 F  pz                22      0.362950  6 F  pz         
     6      0.207579  1 C  s                 10      0.133949  2 H  s          
    13     -0.075133  3 H  s                 15     -0.075133  4 H  s          
    17     -0.075133  5 H  s                 23     -0.050342  6 F  s          

 Vector   11  Occ=0.000000D+00  E= 1.195026D-01  Symmetry=a1
              MO Center=  2.5D-16,  9.8D-16, -1.4D+00, r^2= 3.1D+00
   Bfn.  Coefficient  Atom+Function         Bfn.  Coefficient  Atom+Function  
  ----- ------------  ---------------      ----- ------------  ---------------
     6      2.156197  1 C  s                 13     -1.029312  3 H  s          
    15     -1.029312  4 H  s                 17     -1.029312  5 H  s          
     9     -0.311051  1 C  pz                 1     -0.167802  1 C  s          
    11     -0.130209  2 H  s                  5     -0.120775  1 C  pz         
     2      0.085906  1 C  s                 12     -0.064564  3 H  s          

 Vector   12  Occ=0.000000D+00  E= 1.748845D-01  Symmetry=e
              MO Center= -2.9D-01, -4.0D-01, -1.4D+00, r^2= 2.6D+00
   Bfn.  Coefficient  Atom+Function         Bfn.  Coefficient  Atom+Function  
  ----- ------------  ---------------      ----- ------------  ---------------
    15      1.519691  4 H  s                 17     -1.391896  5 H  s          
     8      1.055682  1 C  py                 7     -0.906511  1 C  px         
     4      0.263869  1 C  py                 3     -0.226584  1 C  px         
    13     -0.127795  3 H  s                 14      0.099497  4 H  s          
    16     -0.091130  5 H  s          

 Vector   13  Occ=0.000000D+00  E= 1.748845D-01  Symmetry=e
              MO Center=  2.9D-01,  4.0D-01, -1.4D+00, r^2= 2.6D+00
   Bfn.  Coefficient  Atom+Function         Bfn.  Coefficient  Atom+Function  
  ----- ------------  ---------------      ----- ------------  ---------------
    13      1.681005  3 H  s                  7     -1.055682  1 C  px         
    17     -0.951176  5 H  s                  8     -0.906511  1 C  py         
    15     -0.729829  4 H  s                  3     -0.263869  1 C  px         
     4     -0.226584  1 C  py                12      0.110058  3 H  s          
    16     -0.062275  5 H  s                 14     -0.047783  4 H  s          

 Vector   14  Occ=0.000000D+00  E= 2.638413D-01  Symmetry=a1
              MO Center= -5.4D-17, -4.5D-17, -3.0D-01, r^2= 2.1D+00
   Bfn.  Coefficient  Atom+Function         Bfn.  Coefficient  Atom+Function  
  ----- ------------  ---------------      ----- ------------  ---------------
    11      1.824724  2 H  s                  9     -1.013636  1 C  pz         
     6     -0.881217  1 C  s                 23     -0.565699  6 F  s          
    26      0.373251  6 F  pz                10      0.275466  2 H  s          
     5     -0.269310  1 C  pz                22      0.218057  6 F  pz         
    12     -0.113424  3 H  s                 14     -0.113424  4 H  s          

 Vector   15  Occ=0.000000D+00  E= 6.801333D-01  Symmetry=e
              MO Center=  1.9D-01,  4.7D-02, -1.1D+00, r^2= 1.8D+00
   Bfn.  Coefficient  Atom+Function         Bfn.  Coefficient  Atom+Function  
  ----- ------------  ---------------      ----- ------------  ---------------
     7      1.314903  1 C  px                 8     -0.744806  1 C  py         
     3     -0.689637  1 C  px                16      0.531956  5 H  s          
     4      0.390634  1 C  py                14     -0.385366  4 H  s          
    17      0.262467  5 H  s                 15     -0.190140  4 H  s          
    12     -0.146590  3 H  s                 13     -0.072327  3 H  s          

 Vector   16  Occ=0.000000D+00  E= 6.801333D-01  Symmetry=e
              MO Center= -1.9D-01, -4.7D-02, -1.1D+00, r^2= 1.8D+00
   Bfn.  Coefficient  Atom+Function         Bfn.  Coefficient  Atom+Function  
  ----- ------------  ---------------      ----- ------------  ---------------
     8      1.314903  1 C  py                 7      0.744806  1 C  px         
     4     -0.689637  1 C  py                12     -0.529616  3 H  s          
     3     -0.390634  1 C  px                14      0.391758  4 H  s          
    13     -0.261313  3 H  s                 15      0.193294  4 H  s          
    16      0.137858  5 H  s                 17      0.068019  5 H  s          

 Vector   17  Occ=0.000000D+00  E= 6.915125D-01  Symmetry=a1
              MO Center= -1.8D-15,  8.9D-16, -1.6D+00, r^2= 1.5D+00
   Bfn.  Coefficient  Atom+Function         Bfn.  Coefficient  Atom+Function  
  ----- ------------  ---------------      ----- ------------  ---------------
     9      1.175683  1 C  pz                 5     -0.947341  1 C  pz         
    10     -0.267154  2 H  s                 12      0.247552  3 H  s          
    14      0.247552  4 H  s                 16      0.247552  5 H  s          
    11     -0.129454  2 H  s                  6     -0.088538  1 C  s          
    13     -0.059796  3 H  s                 15     -0.059796  4 H  s          

 Vector   18  Occ=0.000000D+00  E= 9.250158D-01  Symmetry=a1
              MO Center= -2.2D-16,  1.2D-16, -9.6D-02, r^2= 1.3D+00
   Bfn.  Coefficient  Atom+Function         Bfn.  Coefficient  Atom+Function  
  ----- ------------  ---------------      ----- ------------  ---------------
    11      1.556542  2 H  s                 10     -1.195842  2 H  s          
     9     -0.359988  1 C  pz                23     -0.347426  6 F  s          
     6     -0.299501  1 C  s                 12     -0.255087  3 H  s          
    14     -0.255087  4 H  s                 16     -0.255087  5 H  s          
     2      0.187069  1 C  s                 26      0.169919  6 F  pz         

 Vector   19  Occ=0.000000D+00  E= 1.035998D+00  Symmetry=a1
              MO Center= -4.3D-14,  2.5D-14, -1.1D+00, r^2= 2.4D+00
   Bfn.  Coefficient  Atom+Function         Bfn.  Coefficient  Atom+Function  
  ----- ------------  ---------------      ----- ------------  ---------------
    11      1.564379  2 H  s                  9     -1.030993  1 C  pz         
    13     -0.670648  3 H  s                 15     -0.670648  4 H  s          
    17     -0.670648  5 H  s                 12      0.661117  3 H  s          
    14      0.661117  4 H  s                 16      0.661117  5 H  s          
     5      0.498040  1 C  pz                10     -0.363612  2 H  s          

 Vector   20  Occ=0.000000D+00  E= 1.040525D+00  Symmetry=e
              MO Center= -4.4D-01,  2.0D-01, -1.4D+00, r^2= 1.8D+00
   Bfn.  Coefficient  Atom+Function         Bfn.  Coefficient  Atom+Function  
  ----- ------------  ---------------      ----- ------------  ---------------
    17      1.412790  5 H  s                  7      0.956469  1 C  px         
    16     -0.924791  5 H  s                 13     -0.806404  3 H  s          
     3     -0.776647  1 C  px                15     -0.606385  4 H  s          
    12      0.527860  3 H  s                 14      0.396931  4 H  s          
     8     -0.174286  1 C  py                 4      0.141519  1 C  py         

 Vector   21  Occ=0.000000D+00  E= 1.040525D+00  Symmetry=e
              MO Center=  4.4D-01, -2.0D-01, -1.4D+00, r^2= 1.8D+00
   Bfn.  Coefficient  Atom+Function         Bfn.  Coefficient  Atom+Function  
  ----- ------------  ---------------      ----- ------------  ---------------
    15     -1.281252  4 H  s                 13      1.165771  3 H  s          
     8     -0.956469  1 C  py                14      0.838689  4 H  s          
     4      0.776647  1 C  py                12     -0.763096  3 H  s          
     7     -0.174286  1 C  px                 3      0.141519  1 C  px         
    17      0.115481  5 H  s                 16     -0.075592  5 H  s          

 Vector   22  Occ=0.000000D+00  E= 1.713063D+00  Symmetry=a1
              MO Center= -3.3D-16,  6.8D-16, -9.8D-01, r^2= 1.7D+00
   Bfn.  Coefficient  Atom+Function         Bfn.  Coefficient  Atom+Function  
  ----- ------------  ---------------      ----- ------------  ---------------
     6      3.849646  1 C  s                  2     -1.961521  1 C  s          
    11     -1.012708  2 H  s                 13     -0.707519  3 H  s          
    15     -0.707519  4 H  s                 17     -0.707519  5 H  s          
     9      0.500423  1 C  pz                10     -0.173315  2 H  s          
    22     -0.158926  6 F  pz                12     -0.157871  3 H  s          

 Vector   23  Occ=0.000000D+00  E= 1.863312D+00  Symmetry=e
              MO Center= -1.3D-03,  9.9D-04,  1.3D+00, r^2= 6.1D-01
   Bfn.  Coefficient  Atom+Function         Bfn.  Coefficient  Atom+Function  
  ----- ------------  ---------------      ----- ------------  ---------------
    21      0.999280  6 F  py                25     -0.973388  6 F  py         
     8      0.141343  1 C  py                20      0.071327  6 F  px         
    24     -0.069478  6 F  px                 4     -0.050964  1 C  py         
    15      0.049885  4 H  s                 13     -0.039888  3 H  s          
    14      0.029997  4 H  s          

 Vector   24  Occ=0.000000D+00  E= 1.863312D+00  Symmetry=e
              MO Center=  1.3D-03, -9.9D-04,  1.3D+00, r^2= 6.1D-01
   Bfn.  Coefficient  Atom+Function         Bfn.  Coefficient  Atom+Function  
  ----- ------------  ---------------      ----- ------------  ---------------
    20      0.999280  6 F  px                24     -0.973388  6 F  px         
     7      0.141343  1 C  px                21     -0.071327  6 F  py         
    25      0.069478  6 F  py                17      0.051830  5 H  s          
     3     -0.050964  1 C  px                13     -0.034573  3 H  s          
    16      0.031167  5 H  s          

 Vector   25  Occ=0.000000D+00  E= 2.013005D+00  Symmetry=a1
              MO Center=  4.4D-16,  4.0D-16,  1.4D+00, r^2= 7.6D-01
   Bfn.  Coefficient  Atom+Function         Bfn.  Coefficient  Atom+Function  
  ----- ------------  ---------------      ----- ------------  ---------------
    26      1.116840  6 F  pz                22     -0.963601  6 F  pz         
     6     -0.806379  1 C  s                 11      0.466036  2 H  s          
    10      0.331423  2 H  s                  2      0.286806  1 C  s          
    19     -0.261714  6 F  s                  9     -0.177246  1 C  pz         
    13      0.098804  3 H  s                 15      0.098804  4 H  s          

 Vector   26  Occ=0.000000D+00  E= 3.518416D+00  Symmetry=a1
              MO Center= -1.4D-17,  5.8D-18,  9.5D-01, r^2= 9.2D-01
   Bfn.  Coefficient  Atom+Function         Bfn.  Coefficient  Atom+Function  
  ----- ------------  ---------------      ----- ------------  ---------------
    23      1.752425  6 F  s                 11     -1.525412  2 H  s          
    19     -1.532321  6 F  s                  6      1.455273  1 C  s          
     9      0.662785  1 C  pz                26     -0.520492  6 F  pz         
     2     -0.474133  1 C  s                 22      0.222390  6 F  pz         
    12     -0.133366  3 H  s                 14     -0.133366  4 H  s          


                     DFT Final Beta Molecular Orbital Analysis
                     -----------------------------------------

 Vector    1  Occ=1.000000D+00  E=-2.448411D+01  Symmetry=a1
              MO Center= -1.3D-20, -4.5D-21,  1.3D+00, r^2= 1.2D-02
   Bfn.  Coefficient  Atom+Function         Bfn.  Coefficient  Atom+Function  
  ----- ------------  ---------------      ----- ------------  ---------------
    18      0.981181  6 F  s                 19      0.100865  6 F  s          
    23     -0.035882  6 F  s          

 Vector    2  Occ=1.000000D+00  E=-1.014224D+01  Symmetry=a1
              MO Center=  9.3D-18,  6.4D-18, -1.2D+00, r^2= 2.8D-02
   Bfn.  Coefficient  Atom+Function         Bfn.  Coefficient  Atom+Function  
  ----- ------------  ---------------      ----- ------------  ---------------
     1      0.986174  1 C  s                  2      0.110514  1 C  s          
     6     -0.084625  1 C  s          

 Vector    3  Occ=1.000000D+00  E=-1.047906D+00  Symmetry=a1
              MO Center= -5.0D-16, -6.4D-16,  1.2D+00, r^2= 4.1D-01
   Bfn.  Coefficient  Atom+Function         Bfn.  Coefficient  Atom+Function  
  ----- ------------  ---------------      ----- ------------  ---------------
    23      0.788356  6 F  s                 18     -0.250147  6 F  s          
    19      0.239276  6 F  s                 10      0.060617  2 H  s          
    11      0.059203  2 H  s                 26     -0.035424  6 F  pz         
    22     -0.032901  6 F  pz         

 Vector    4  Occ=1.000000D+00  E=-7.108589D-01  Symmetry=a1
              MO Center=  8.3D-16,  1.7D-15, -1.1D+00, r^2= 1.1D+00
   Bfn.  Coefficient  Atom+Function         Bfn.  Coefficient  Atom+Function  
  ----- ------------  ---------------      ----- ------------  ---------------
     6      0.622869  1 C  s                  1     -0.209617  1 C  s          
     2      0.200721  1 C  s                 12      0.130525  3 H  s          
    14      0.130525  4 H  s                 16      0.130525  5 H  s          
    10      0.100335  2 H  s                 23     -0.095880  6 F  s          
     9      0.040131  1 C  pz                26     -0.039852  6 F  pz         

 Vector    5  Occ=1.000000D+00  E=-4.382985D-01  Symmetry=e
              MO Center= -2.4D-01, -3.5D-02, -1.3D+00, r^2= 1.2D+00
   Bfn.  Coefficient  Atom+Function         Bfn.  Coefficient  Atom+Function  
  ----- ------------  ---------------      ----- ------------  ---------------
     3      0.349133  1 C  px                 7      0.260739  1 C  px         
    16     -0.261461  5 H  s                 17     -0.220561  5 H  s          
    14      0.177062  4 H  s                  4     -0.174559  1 C  py         
    15      0.149365  4 H  s                  8     -0.130364  1 C  py         
    12      0.084399  3 H  s                 13      0.071196  3 H  s          

 Vector    6  Occ=1.000000D+00  E=-4.382985D-01  Symmetry=e
              MO Center=  2.4D-01,  3.5D-02, -1.3D+00, r^2= 1.2D+00
   Bfn.  Coefficient  Atom+Function         Bfn.  Coefficient  Atom+Function  
  ----- ------------  ---------------      ----- ------------  ---------------
     4      0.349133  1 C  py                 8      0.260739  1 C  py         
    12      0.253181  3 H  s                 13      0.213577  3 H  s          
    14     -0.199682  4 H  s                  3      0.174559  1 C  px         
    15     -0.168446  4 H  s                  7      0.130364  1 C  px         
    16     -0.053499  5 H  s                 17     -0.045131  5 H  s          

 Vector    7  Occ=1.000000D+00  E=-4.088173D-01  Symmetry=a1
              MO Center=  3.7D-15, -5.3D-15,  7.8D-02, r^2= 2.0D+00
   Bfn.  Coefficient  Atom+Function         Bfn.  Coefficient  Atom+Function  
  ----- ------------  ---------------      ----- ------------  ---------------
    26      0.304190  6 F  pz                22      0.290098  6 F  pz         
    11     -0.279155  2 H  s                 10     -0.266254  2 H  s          
     5     -0.238357  1 C  pz                23      0.237293  6 F  s          
     9     -0.202824  1 C  pz                 6      0.085992  1 C  s          
    12      0.071822  3 H  s                 14      0.071822  4 H  s          

 Vector    8  Occ=1.000000D+00  E=-3.090588D-01  Symmetry=e
              MO Center=  7.4D-04,  1.4D-03,  1.3D+00, r^2= 4.3D-01
   Bfn.  Coefficient  Atom+Function         Bfn.  Coefficient  Atom+Function  
  ----- ------------  ---------------      ----- ------------  ---------------
    24      0.488661  6 F  px                20      0.441018  6 F  px         
    25      0.361214  6 F  py                21      0.325997  6 F  py         
    13     -0.039721  3 H  s                  3     -0.027657  1 C  px         
    12     -0.027596  3 H  s                 17      0.025019  5 H  s          

 Vector    9  Occ=1.000000D+00  E=-3.090588D-01  Symmetry=e
              MO Center= -7.4D-04, -1.4D-03,  1.3D+00, r^2= 4.3D-01
   Bfn.  Coefficient  Atom+Function         Bfn.  Coefficient  Atom+Function  
  ----- ------------  ---------------      ----- ------------  ---------------
    25      0.488661  6 F  py                21      0.441018  6 F  py         
    24     -0.361214  6 F  px                20     -0.325997  6 F  px         
    15      0.037378  4 H  s                 17     -0.031421  5 H  s          
     4     -0.027657  1 C  py                14      0.025968  4 H  s          

 Vector   10  Occ=0.000000D+00  E=-1.484600D-01  Symmetry=a1
              MO Center=  8.7D-17, -3.5D-17,  1.1D-01, r^2= 2.2D+00
   Bfn.  Coefficient  Atom+Function         Bfn.  Coefficient  Atom+Function  
  ----- ------------  ---------------      ----- ------------  ---------------
     9      0.466463  1 C  pz                26      0.467080  6 F  pz         
    22      0.400916  6 F  pz                 5      0.344450  1 C  pz         
     6      0.303138  1 C  s                 11     -0.121795  2 H  s          
    13     -0.078838  3 H  s                 15     -0.078838  4 H  s          
    17     -0.078838  5 H  s                 10      0.076983  2 H  s          

 Vector   11  Occ=0.000000D+00  E= 1.278702D-01  Symmetry=a1
              MO Center=  6.5D-16,  8.1D-16, -1.4D+00, r^2= 3.1D+00
   Bfn.  Coefficient  Atom+Function         Bfn.  Coefficient  Atom+Function  
  ----- ------------  ---------------      ----- ------------  ---------------
     6      2.191638  1 C  s                 13     -1.033438  3 H  s          
    15     -1.033438  4 H  s                 17     -1.033438  5 H  s          
     9     -0.303244  1 C  pz                 1     -0.171440  1 C  s          
    11     -0.163640  2 H  s                  5     -0.119966  1 C  pz         
     2      0.083256  1 C  s                 12     -0.055346  3 H  s          

 Vector   12  Occ=0.000000D+00  E= 1.794597D-01  Symmetry=e
              MO Center= -2.0D-01, -4.5D-01, -1.4D+00, r^2= 2.6D+00
   Bfn.  Coefficient  Atom+Function         Bfn.  Coefficient  Atom+Function  
  ----- ------------  ---------------      ----- ------------  ---------------
    15      1.594697  4 H  s                 17     -1.281859  5 H  s          
     8      1.157587  1 C  py                 7     -0.790610  1 C  px         
    13     -0.312837  3 H  s                  4      0.286865  1 C  py         
     3     -0.195923  1 C  px                14      0.098445  4 H  s          
    16     -0.079132  5 H  s          

 Vector   13  Occ=0.000000D+00  E= 1.794597D-01  Symmetry=e
              MO Center=  2.0D-01,  4.5D-01, -1.4D+00, r^2= 2.6D+00
   Bfn.  Coefficient  Atom+Function         Bfn.  Coefficient  Atom+Function  
  ----- ------------  ---------------      ----- ------------  ---------------
    13      1.660780  3 H  s                  7     -1.157587  1 C  px         
    17     -1.101315  5 H  s                  8     -0.790610  1 C  py         
    15     -0.559465  4 H  s                  3     -0.286865  1 C  px         
     4     -0.195923  1 C  py                12      0.102524  3 H  s          
    16     -0.067987  5 H  s                 14     -0.034537  4 H  s          

 Vector   14  Occ=0.000000D+00  E= 2.956496D-01  Symmetry=a1
              MO Center=  5.5D-17, -1.7D-17, -3.0D-01, r^2= 2.3D+00
   Bfn.  Coefficient  Atom+Function         Bfn.  Coefficient  Atom+Function  
  ----- ------------  ---------------      ----- ------------  ---------------
    11      1.838479  2 H  s                  9     -1.069282  1 C  pz         
     6     -0.850452  1 C  s                 23     -0.568257  6 F  s          
    26      0.431138  6 F  pz                10      0.260160  2 H  s          
     5     -0.242529  1 C  pz                22      0.241600  6 F  pz         
    12     -0.118469  3 H  s                 14     -0.118469  4 H  s          

 Vector   15  Occ=0.000000D+00  E= 6.848547D-01  Symmetry=e
              MO Center= -3.0D-02, -1.8D-01, -1.1D+00, r^2= 1.8D+00
   Bfn.  Coefficient  Atom+Function         Bfn.  Coefficient  Atom+Function  
  ----- ------------  ---------------      ----- ------------  ---------------
     7      1.334172  1 C  px                 3     -0.699267  1 C  px         
     8      0.683617  1 C  py                12     -0.531404  3 H  s          
    16      0.414078  5 H  s                  4     -0.358298  1 C  py         
    13     -0.242197  3 H  s                 17      0.188723  5 H  s          
    14      0.117326  4 H  s                 15      0.053473  4 H  s          

 Vector   16  Occ=0.000000D+00  E= 6.848547D-01  Symmetry=e
              MO Center=  3.0D-02,  1.8D-01, -1.1D+00, r^2= 1.8D+00
   Bfn.  Coefficient  Atom+Function         Bfn.  Coefficient  Atom+Function  
  ----- ------------  ---------------      ----- ------------  ---------------
     8      1.334172  1 C  py                 4     -0.699267  1 C  py         
     7     -0.683617  1 C  px                14      0.545874  4 H  s          
    16     -0.374545  5 H  s                  3      0.358298  1 C  px         
    15      0.248792  4 H  s                 12     -0.171330  3 H  s          
    17     -0.170705  5 H  s                 13     -0.078087  3 H  s          

 Vector   17  Occ=0.000000D+00  E= 7.251539D-01  Symmetry=a1
              MO Center=  1.2D-17,  5.6D-18, -1.5D+00, r^2= 1.5D+00
   Bfn.  Coefficient  Atom+Function         Bfn.  Coefficient  Atom+Function  
  ----- ------------  ---------------      ----- ------------  ---------------
     9      1.071394  1 C  pz                 5     -0.941066  1 C  pz         
    10     -0.324527  2 H  s                 12      0.259542  3 H  s          
    14      0.259542  4 H  s                 16      0.259542  5 H  s          
     6     -0.160336  1 C  s                 13     -0.080017  3 H  s          
    15     -0.080017  4 H  s                 17     -0.080017  5 H  s          

 Vector   18  Occ=0.000000D+00  E= 9.258569D-01  Symmetry=a1
              MO Center= -6.7D-16, -1.1D-15, -1.3D-01, r^2= 1.3D+00
   Bfn.  Coefficient  Atom+Function         Bfn.  Coefficient  Atom+Function  
  ----- ------------  ---------------      ----- ------------  ---------------
    11      1.528462  2 H  s                 10     -1.186074  2 H  s          
     9     -0.386435  1 C  pz                23     -0.341501  6 F  s          
    12     -0.267201  3 H  s                 14     -0.267201  4 H  s          
    16     -0.267201  5 H  s                  6     -0.257281  1 C  s          
     2      0.177647  1 C  s                  5      0.175773  1 C  pz         

 Vector   19  Occ=0.000000D+00  E= 1.043226D+00  Symmetry=a1
              MO Center=  2.6D-17, -4.1D-17, -1.1D+00, r^2= 2.3D+00
   Bfn.  Coefficient  Atom+Function         Bfn.  Coefficient  Atom+Function  
  ----- ------------  ---------------      ----- ------------  ---------------
    11      1.567461  2 H  s                  9     -1.065004  1 C  pz         
    13     -0.663010  3 H  s                 15     -0.663010  4 H  s          
    17     -0.663010  5 H  s                 12      0.650937  3 H  s          
    14      0.650937  4 H  s                 16      0.650937  5 H  s          
     5      0.539115  1 C  pz                10     -0.355623  2 H  s          

 Vector   20  Occ=0.000000D+00  E= 1.043568D+00  Symmetry=e
              MO Center= -4.1D-01,  2.4D-01, -1.4D+00, r^2= 1.8D+00
   Bfn.  Coefficient  Atom+Function         Bfn.  Coefficient  Atom+Function  
  ----- ------------  ---------------      ----- ------------  ---------------
    17      1.400580  5 H  s                  7      0.971519  1 C  px         
    16     -0.913195  5 H  s                 13     -0.866720  3 H  s          
     3     -0.794140  1 C  px                12      0.565112  3 H  s          
    15     -0.533860  4 H  s                 14      0.348083  4 H  s          
     8     -0.122509  1 C  py                 4      0.100142  1 C  py         

 Vector   21  Occ=0.000000D+00  E= 1.043568D+00  Symmetry=e
              MO Center=  4.1D-01, -2.4D-01, -1.4D+00, r^2= 1.8D+00
   Bfn.  Coefficient  Atom+Function         Bfn.  Coefficient  Atom+Function  
  ----- ------------  ---------------      ----- ------------  ---------------
    15      1.309026  4 H  s                 13     -1.116850  3 H  s          
     8      0.971519  1 C  py                14     -0.853501  4 H  s          
     4     -0.794140  1 C  py                12      0.728199  3 H  s          
    17     -0.192176  5 H  s                 16      0.125301  5 H  s          
     7      0.122509  1 C  px                 3     -0.100142  1 C  px         

 Vector   22  Occ=0.000000D+00  E= 1.732926D+00  Symmetry=a1
              MO Center=  4.6D-16,  9.8D-17, -9.9D-01, r^2= 1.7D+00
   Bfn.  Coefficient  Atom+Function         Bfn.  Coefficient  Atom+Function  
  ----- ------------  ---------------      ----- ------------  ---------------
     6      3.864009  1 C  s                  2     -1.971494  1 C  s          
    11     -1.030312  2 H  s                 13     -0.706818  3 H  s          
    15     -0.706818  4 H  s                 17     -0.706818  5 H  s          
     9      0.509758  1 C  pz                10     -0.179815  2 H  s          
    12     -0.158741  3 H  s                 14     -0.158741  4 H  s          

 Vector   23  Occ=0.000000D+00  E= 1.876935D+00  Symmetry=e
              MO Center= -7.7D-04, -1.5D-03,  1.3D+00, r^2= 6.1D-01
   Bfn.  Coefficient  Atom+Function         Bfn.  Coefficient  Atom+Function  
  ----- ------------  ---------------      ----- ------------  ---------------
    20      0.807857  6 F  px                24     -0.782826  6 F  px         
    21      0.596629  6 F  py                25     -0.578142  6 F  py         
     7      0.113730  1 C  px                 8      0.083994  1 C  py         
    13     -0.052235  3 H  s                  3     -0.041001  1 C  px         
    17      0.032921  5 H  s                 12     -0.031158  3 H  s          

 Vector   24  Occ=0.000000D+00  E= 1.876935D+00  Symmetry=e
              MO Center=  7.7D-04,  1.5D-03,  1.3D+00, r^2= 6.1D-01
   Bfn.  Coefficient  Atom+Function         Bfn.  Coefficient  Atom+Function  
  ----- ------------  ---------------      ----- ------------  ---------------
    21      0.807857  6 F  py                25     -0.782826  6 F  py         
    20     -0.596629  6 F  px                24      0.578142  6 F  px         
     8      0.113730  1 C  py                 7     -0.083994  1 C  px         
    15      0.049165  4 H  s                 17     -0.041309  5 H  s          
     4     -0.041001  1 C  py                 3      0.030280  1 C  px         

 Vector   25  Occ=0.000000D+00  E= 2.082970D+00  Symmetry=a1
              MO Center=  1.9D-17,  2.5D-17,  1.5D+00, r^2= 6.9D-01
   Bfn.  Coefficient  Atom+Function         Bfn.  Coefficient  Atom+Function  
  ----- ------------  ---------------      ----- ------------  ---------------
    26      1.099188  6 F  pz                22     -0.983299  6 F  pz         
     6     -0.688705  1 C  s                 11      0.430389  2 H  s          
    10      0.312127  2 H  s                 19     -0.263066  6 F  s          
     2      0.232612  1 C  s                  9     -0.158925  1 C  pz         
    13      0.079396  3 H  s                 15      0.079396  4 H  s          

 Vector   26  Occ=0.000000D+00  E= 3.551670D+00  Symmetry=a1
              MO Center=  3.8D-17,  1.2D-17,  9.6D-01, r^2= 9.1D-01
   Bfn.  Coefficient  Atom+Function         Bfn.  Coefficient  Atom+Function  
  ----- ------------  ---------------      ----- ------------  ---------------
    23      1.745808  6 F  s                 19     -1.533217  6 F  s          
    11     -1.515134  2 H  s                  6      1.442139  1 C  s          
     9      0.658411  1 C  pz                26     -0.521629  6 F  pz         
     2     -0.469750  1 C  s                 22      0.229078  6 F  pz         
    12     -0.131778  3 H  s                 14     -0.131778  4 H  s          


   alpha - beta orbital overlaps 
   ----------------------------- 


   alpha      1      2      3      4      5      6      7      8      9     10
    beta      1      2      3      4      7      5      6      8      9     10
 overlap   1.000  1.000  1.000  0.999  0.979  1.000  1.000  0.802  0.802  0.981


   alpha     11     12     13     14     15     16     17     18     19     20
    beta     11     12     13     14     16     15     17     18     19     20
 overlap   1.000  0.994  0.994  0.996  0.835  0.835  0.998  0.999  0.999  0.998


   alpha     21     22     23     24     25     26
    beta     21     22     24     23     25     26
 overlap   0.998  1.000  0.760  0.760  0.999  1.000

     --------------------------
     Expectation value of S2:  
     --------------------------
      <S2> =      0.7570 (Exact =     0.7500)


 center of mass
 --------------
 x =   0.00000000 y =   0.00000000 z =   0.29325232

 moments of inertia (a.u.)
 ------------------
         199.232822417712          -0.000000000000           0.000000000000
          -0.000000000000         199.232822417712           0.000000000000
           0.000000000000           0.000000000000          12.201976190331

     Multipole analysis of the density
     ---------------------------------

     L   x y z        total         alpha         beta         nuclear
     -   - - -        -----         -----         ----         -------
     0   0 0 0     -0.000000    -10.000000     -9.000000     19.000000

     1   1 0 0      0.000000     -0.000000     -0.000000      0.000000
     1   0 1 0      0.000000     -0.000000     -0.000000      0.000000
     1   0 0 1     -0.789526     -0.538688     -0.250838      0.000000

     2   2 0 0     -9.040681     -7.709225     -7.385075      6.053619
     2   1 1 0     -0.000000     -0.000000     -0.000000      0.000000
     2   1 0 1     -0.000000     -0.000000      0.000000     -0.000000
     2   0 2 0     -9.040681     -7.709225     -7.385075      6.053619
     2   0 1 1     -0.000000      0.000000      0.000000     -0.000000
     2   0 0 2    -10.459858    -61.660725    -54.476772    105.677638


            General Information
            -------------------
          SCF calculation type: DFT
          Wavefunction type:  spin polarized.
          No. of atoms     :     6
          No. of electrons :    19
           Alpha electrons :    10
            Beta electrons :     9
          Charge           :     0
          Spin multiplicity:     2
          Use of symmetry is: on ; symmetry adaption is: on 
          Maximum number of iterations:  30
          This is a Direct SCF calculation.
          AO basis - number of functions:    26
                     number of shells:    18
          Convergence on energy requested:  1.00D-06
          Convergence on density requested:  1.00D-05
          Convergence on gradient requested:  5.00D-04

              XC Information
              --------------
                         B3LYP Method XC Potential
                     Hartree-Fock (Exact) Exchange  0.200          
                        Slater Exchange Functional  0.800 local    
                    Becke 1988 Exchange Functional  0.720 non-local
              Lee-Yang-Parr Correlation Functional  0.810          
                  VWN I RPA Correlation Functional  0.190 local    

             Grid Information
             ----------------
          Grid used for XC integration:  medium    
          Radial quadrature: Mura-Knowles        
          Angular quadrature: Lebedev. 
          Tag              B.-S. Rad. Rad. Pts. Rad. Cut. Ang. Pts.
          ---              ---------- --------- --------- ---------
          c                   0.70       49           6.0       434
          h                   0.35       45           6.0       434
          f                   0.50       49           8.0       434
          Grid pruning is: on 
          Number of quadrature shells:   188
          Spatial weights used:  Erf1

          Convergence Information
          -----------------------
          Convergence aids based upon iterative change in 
          total energy or number of iterations. 
          Levelshifting, if invoked, occurs when the 
          HOMO/LUMO gap drops below (HL_TOL):  1.00D-02
          DIIS, if invoked, will attempt to extrapolate 
          using up to (NFOCK): 10 stored Fock matrices.

                    Damping( 0%)  Levelshifting(0.5)       DIIS
                  --------------- ------------------- ---------------
          dE  on:    start            ASAP                start   
          dE off:    2 iters         30 iters            30 iters 

          Smearing applied:  0.10D-02 (hartree)

      Screening Tolerance Information
      -------------------------------
          Density screening/tol_rho:  1.00D-10
          AO Gaussian exp screening on grid/accAOfunc:  14
          CD Gaussian exp screening on grid/accCDfunc:  20
          XC Gaussian exp screening on grid/accXCfunc:  20
          Schwarz screening/accCoul:  1.00D-08



                            NWChem DFT Gradient Module
                            --------------------------


              Find the saddle point for CH3 + HF <-> CH4 + F with DFT



  charge          =   0.00
  wavefunction    = open shell

  Rotation of axis 
  Using symmetry


                         DFT ENERGY GRADIENTS

    atom               coordinates                        gradient
                 x          y          z           x          y          z
   1 c       0.000000   0.000000  -2.305366    0.000000   0.000000  -0.029681
   2 h       0.000000  -0.000000   0.054902    0.000000   0.000000  -0.004788
   3 h       1.420519   1.420519  -2.658745   -0.003062  -0.003062   0.009455
   4 h       0.519946  -1.940464  -2.658745   -0.001121   0.004183   0.009455
   5 h      -1.940464   0.519946  -2.658745    0.004183  -0.001121   0.009455
   6 f       0.000000   0.000000   2.417059    0.000000   0.000000   0.006104

                 ----------------------------------------
                 |  Time  |  1-e(secs)   |  2-e(secs)   |
                 ----------------------------------------
                 |  CPU   |       0.00   |       0.06   |
                 ----------------------------------------
                 |  WALL  |       0.00   |       0.06   |
                 ----------------------------------------

@ Step       Energy      Delta E   Gmax     Grms     Xrms     Xmax   Walltime
@ ---- ---------------- -------- -------- -------- -------- -------- --------
@    0    -139.48950693  0.0D+00  0.00610  0.00386  0.00000  0.00000      1.5
                                                                    



                                Z-matrix (autoz)
                                -------- 

 Units are Angstrom for bonds and degrees for angles

      Type          Name      I     J     K     L     M      Value     Gradient
      ----------- --------  ----- ----- ----- ----- ----- ---------- ----------
    1 Stretch                  1     2                       1.24900    0.00132
    2 Stretch                  1     3                       1.07939   -0.00590
    3 Stretch                  1     4                       1.07939   -0.00590
    4 Stretch                  1     5                       1.07939   -0.00590
    5 Stretch                  2     6                       1.25000    0.00610
    6 Bend                     2     1     3                99.97656   -0.00397
    7 Bend                     2     1     4                99.97656   -0.00397
    8 Bend                     2     1     5                99.97656   -0.00397
    9 Bend                     3     1     4               117.06359    0.00228
   10 Bend                     3     1     5               117.06359    0.00228
   11 Bend                     4     1     5               117.06359    0.00228
   12 Bend                     6     1     3                99.97656   -0.00397
   13 Bend                     6     1     4                99.97656   -0.00397
   14 Bend                     6     1     5                99.97656   -0.00397
   15 Torsion                  1     3     2     6        -180.00000   -0.00000
   16 Torsion                  1     4     2     6         180.00000   -0.00000
   17 Torsion                  1     5     2     6        -180.00000    0.00000

 Hessian eigenvalues: positive=  16 negative=  1 zero=  0
 Initial step taken uphill

 The mode being followed to the saddle point


                                Z-matrix (autoz)
                                -------- 

 Units are Angstrom for bonds and degrees for angles

      Type          Name      I     J     K     L     M      Value      Sadmode
      ----------- --------  ----- ----- ----- ----- ----- ---------- ----------
    1 Stretch                  1     2                       1.24900    0.08270
    2 Stretch                  1     3                       1.07939   -0.37077
    3 Stretch                  1     4                       1.07939   -0.37077
    4 Stretch                  1     5                       1.07939   -0.37077
    5 Stretch                  2     6                       1.25000    0.38341
    6 Bend                     2     1     3                99.97656   -0.24908
    7 Bend                     2     1     4                99.97656   -0.24908
    8 Bend                     2     1     5                99.97656   -0.24908
    9 Bend                     3     1     4               117.06359    0.14318
   10 Bend                     3     1     5               117.06359    0.14318
   11 Bend                     4     1     5               117.06359    0.14318
   12 Bend                     6     1     3                99.97656   -0.24908
   13 Bend                     6     1     4                99.97656   -0.24908
   14 Bend                     6     1     5                99.97656   -0.24908
   15 Torsion                  1     3     2     6        -180.00000    0.00000
   16 Torsion                  1     4     2     6         180.00000    0.00000
   17 Torsion                  1     5     2     6        -180.00000    0.00000


          --------
          Step   1
          --------


                         Geometry "geometry" -> "geometry"
                         ---------------------------------

 Output coordinates in angstroms (scale by  1.889725989 to convert to a.u.)

  No.       Tag          Charge          X              Y              Z
 ---- ---------------- ---------- -------------- -------------- --------------
    1 c                    6.0000    -0.00000000    -0.00000000    -1.22210181
    2 h                    1.0000     0.00000000    -0.00000000     0.02759491
    3 h                    1.0000     0.74980595     0.74980595    -1.40633414
    4 h                    1.0000     0.27444802    -1.02425397    -1.40633414
    5 h                    1.0000    -1.02425397     0.27444802    -1.40633414
    6 f                    9.0000    -0.00000000    -0.00000000     1.28082509

      Atomic Mass 
      ----------- 

      c                 12.000000
      h                  1.007825
      f                 18.998400


 Effective nuclear repulsion energy (a.u.)      33.3083944716

            Nuclear Dipole moment (a.u.) 
            ----------------------------
        X                 Y               Z
 ---------------- ---------------- ----------------
    -0.0000000000    -0.0000000000     0.0064390491

      Symmetry information
      --------------------

 Group name             C3v       
 Group number             17
 Group order               6
 No. of unique centers     4

      Symmetry unique atoms

     1    2    3    6


                                 NWChem DFT Module
                                 -----------------


              Find the saddle point for CH3 + HF <-> CH4 + F with DFT




 Summary of "ao basis" -> "ao basis" (cartesian)
 ------------------------------------------------------------------------------
       Tag                 Description            Shells   Functions and Types
 ---------------- ------------------------------  ------  ---------------------
 c                           3-21g                   5        9   3s2p
 h                           3-21g                   2        2   2s
 f                           3-21g                   5        9   3s2p


      Symmetry analysis of basis
      --------------------------

        a1         14
        a2          0
        e          12

  Caching 1-el integrals 
  Rotation of axis 

            General Information
            -------------------
          SCF calculation type: DFT
          Wavefunction type:  spin polarized.
          No. of atoms     :     6
          No. of electrons :    19
           Alpha electrons :    10
            Beta electrons :     9
          Charge           :     0
          Spin multiplicity:     2
          Use of symmetry is: on ; symmetry adaption is: on 
          Maximum number of iterations:  30
          This is a Direct SCF calculation.
          AO basis - number of functions:    26
                     number of shells:    18
          Convergence on energy requested:  1.00D-06
          Convergence on density requested:  1.00D-05
          Convergence on gradient requested:  5.00D-04

              XC Information
              --------------
                         B3LYP Method XC Potential
                     Hartree-Fock (Exact) Exchange  0.200          
                        Slater Exchange Functional  0.800 local    
                    Becke 1988 Exchange Functional  0.720 non-local
              Lee-Yang-Parr Correlation Functional  0.810          
                  VWN I RPA Correlation Functional  0.190 local    

             Grid Information
             ----------------
          Grid used for XC integration:  medium    
          Radial quadrature: Mura-Knowles        
          Angular quadrature: Lebedev. 
          Tag              B.-S. Rad. Rad. Pts. Rad. Cut. Ang. Pts.
          ---              ---------- --------- --------- ---------
          c                   0.70       49           6.0       434
          h                   0.35       45           6.0       434
          f                   0.50       49           8.0       434
          Grid pruning is: on 
          Number of quadrature shells:   188
          Spatial weights used:  Erf1

          Convergence Information
          -----------------------
          Convergence aids based upon iterative change in 
          total energy or number of iterations. 
          Levelshifting, if invoked, occurs when the 
          HOMO/LUMO gap drops below (HL_TOL):  1.00D-02
          DIIS, if invoked, will attempt to extrapolate 
          using up to (NFOCK): 10 stored Fock matrices.

                    Damping( 0%)  Levelshifting(0.5)       DIIS
                  --------------- ------------------- ---------------
          dE  on:    start            ASAP                start   
          dE off:    2 iters         30 iters            30 iters 

          Smearing applied:  0.10D-02 (hartree)

      Screening Tolerance Information
      -------------------------------
          Density screening/tol_rho:  1.00D-10
          AO Gaussian exp screening on grid/accAOfunc:  14
          CD Gaussian exp screening on grid/accCDfunc:  20
          XC Gaussian exp screening on grid/accXCfunc:  20
          Schwarz screening/accCoul:  1.00D-08


 Loading old vectors from job with title :

Find the saddle point for CH3 + HF <-> CH4 + F with DFT


   Symmetry analysis of molecular orbitals - initial alpha
   -------------------------------------------------------

  Numbering of irreducible representations: 

     1 a1          2 a2          3 e       

  Orbital symmetries:

     1 a1          2 a1          3 a1          4 a1          5 a1      
     6 e           7 e           8 e           9 e          10 a1      
    11 a1         12 e          13 e          14 a1         15 e       
    16 e          17 a1         18 a1         19 a1         20 e       


   Symmetry analysis of molecular orbitals - initial beta
   ------------------------------------------------------

  Numbering of irreducible representations: 

     1 a1          2 a2          3 e       

  Orbital symmetries:

     1 a1          2 a1          3 a1          4 a1          5 e       
     6 e           7 a1          8 e           9 e          10 a1      
    11 a1         12 e          13 e          14 a1         15 e       
    16 e          17 a1         18 a1         19 a1         20 e       

   Time after variat. SCF:      1.5
 sigma=  0.10D-02 eFermi=  0.00000 T*S=  0.00E+00 nel(1)=   10.00 nel(2)=    9.00

   Time prior to 1st pass:      1.5

 Grid_pts file          = ./ch3hf_dft_.gridpts.0
 Record size in doubles =  12289        No. of grid_pts per rec  =   3070
 Max. records in memory =     16        Max. recs in file   =    136191

 sigma=  0.10D-02 eFermi=  0.01889 T*S=  0.00E+00 nel(1)=   10.00 nel(2)=    9.00


           Memory utilization after 1st SCF pass: 
           Heap Space remaining (MW):       12.91            12908836
          Stack Space remaining (MW):       13.11            13106692

   convergence    iter        energy       DeltaE   RMS-Dens  Diis-err    time
 ---------------- ----- ----------------- --------- --------- ---------  ------
 d= 0,ls=0.0,diis     1   -139.4892225963 -1.73D+02  1.42D-04  1.49D-05     1.7
                                                     1.48D-04  1.53D-05
 sigma=  0.10D-02 eFermi=  0.01878 T*S=  0.00E+00 nel(1)=   10.00 nel(2)=    9.00

 d= 0,ls=0.0,diis     2   -139.4892270394 -4.44D-06  9.82D-05  8.57D-06     1.8
                                                     9.36D-05  6.94D-06
 sigma=  0.10D-02 eFermi=  0.01902 T*S=  0.00E+00 nel(1)=   10.00 nel(2)=    9.00

 d= 0,ls=0.0,diis     3   -139.4892295107 -2.47D-06  2.95D-05  2.93D-06     1.9
                                                     3.88D-05  3.16D-06
 sigma=  0.10D-02 eFermi=  0.01894 T*S=  0.00E+00 nel(1)=   10.00 nel(2)=    9.00

 d= 0,ls=0.0,diis     4   -139.4892307903 -1.28D-06  7.57D-06  1.48D-07     2.0
                                                     5.39D-06  1.15D-07
 sigma=  0.10D-02 eFermi=  0.01893 T*S=  0.00E+00 nel(1)=   10.00 nel(2)=    9.00

 d= 0,ls=0.0,diis     5   -139.4892308304 -4.01D-08  3.91D-06  3.78D-09     2.1
                                                     9.28D-07  6.33D-10


         Total DFT energy =     -139.489230830417
      One electron energy =     -258.453439604109
           Coulomb energy =      102.964533070191
    Exchange-Corr. energy =      -17.308718768114
 Nuclear repulsion energy =       33.308394471616

 Numeric. integr. density =       18.999993276788

     Total iterative time =      0.5s



                  Occupations of the irreducible representations
                  ----------------------------------------------

                     irrep           alpha         beta
                     --------     --------     --------
                     a1                6.0          5.0
                     a2                0.0          0.0
                     e                 4.0          4.0


                    DFT Final Alpha Molecular Orbital Analysis
                    ------------------------------------------

 Vector    1  Occ=1.000000D+00  E=-2.450133D+01  Symmetry=a1
              MO Center= -3.8D-22, -7.8D-22,  1.3D+00, r^2= 1.2D-02
   Bfn.  Coefficient  Atom+Function         Bfn.  Coefficient  Atom+Function  
  ----- ------------  ---------------      ----- ------------  ---------------
    18      0.981001  6 F  s                 19      0.101538  6 F  s          
    23     -0.035928  6 F  s          

 Vector    2  Occ=1.000000D+00  E=-1.014927D+01  Symmetry=a1
              MO Center= -9.4D-18,  3.2D-19, -1.2D+00, r^2= 2.8D-02
   Bfn.  Coefficient  Atom+Function         Bfn.  Coefficient  Atom+Function  
  ----- ------------  ---------------      ----- ------------  ---------------
     1      0.985994  1 C  s                  2      0.111326  1 C  s          
     6     -0.085001  1 C  s          

 Vector    3  Occ=1.000000D+00  E=-1.095238D+00  Symmetry=a1
              MO Center=  8.5D-21,  9.6D-21,  1.2D+00, r^2= 3.9D-01
   Bfn.  Coefficient  Atom+Function         Bfn.  Coefficient  Atom+Function  
  ----- ------------  ---------------      ----- ------------  ---------------
    23      0.789855  6 F  s                 18     -0.252589  6 F  s          
    19      0.247393  6 F  s                 10      0.054842  2 H  s          
    11      0.042384  2 H  s                 22     -0.040626  6 F  pz         
    26     -0.038753  6 F  pz         

 Vector    4  Occ=1.000000D+00  E=-7.359497D-01  Symmetry=a1
              MO Center=  9.2D-16, -1.0D-16, -1.1D+00, r^2= 1.1D+00
   Bfn.  Coefficient  Atom+Function         Bfn.  Coefficient  Atom+Function  
  ----- ------------  ---------------      ----- ------------  ---------------
     6      0.651178  1 C  s                  1     -0.213366  1 C  s          
     2      0.207554  1 C  s                 12      0.122028  3 H  s          
    14      0.122028  4 H  s                 16      0.122028  5 H  s          
    10      0.106236  2 H  s                 23     -0.092562  6 F  s          
    22     -0.048080  6 F  pz                26     -0.046711  6 F  pz         

 Vector    5  Occ=1.000000D+00  E=-4.810708D-01  Symmetry=a1
              MO Center=  2.0D-15, -1.5D-16,  4.3D-01, r^2= 1.9D+00
   Bfn.  Coefficient  Atom+Function         Bfn.  Coefficient  Atom+Function  
  ----- ------------  ---------------      ----- ------------  ---------------
    22      0.396119  6 F  pz                26      0.394750  6 F  pz         
    10     -0.209660  2 H  s                  5     -0.205768  1 C  pz         
    11     -0.192802  2 H  s                 23      0.191093  6 F  s          
     9     -0.168853  1 C  pz                 6      0.112770  1 C  s          
    12      0.063913  3 H  s                 14      0.063913  4 H  s          

 Vector    6  Occ=1.000000D+00  E=-4.451081D-01  Symmetry=e
              MO Center=  2.2D-01, -8.8D-02, -1.3D+00, r^2= 1.2D+00
   Bfn.  Coefficient  Atom+Function         Bfn.  Coefficient  Atom+Function  
  ----- ------------  ---------------      ----- ------------  ---------------
     4      0.390513  1 C  py                 8      0.295556  1 C  py         
    14     -0.234009  4 H  s                 12      0.218559  3 H  s          
    15     -0.189492  4 H  s                 13      0.176981  3 H  s          
     3      0.080274  1 C  px                 7      0.060755  1 C  px         
    25      0.032835  6 F  py                21      0.028706  6 F  py         

[...]
   ----- ----- ----- ----- -----
   11    3.19298D+02
   12    7.07233D+01  4.72355D+01
   13   -9.44549D-01 -2.87590D+00  3.19298D+02
   14   -3.71393D+00  8.90414D+00 -7.27835D+01  6.71686D+01
   15   -2.87591D+00  5.31298D+00  7.07233D+01 -1.89503D+01  4.72353D+01
   16   -8.78683D-02 -1.99521D-02  2.59090D-01 -8.78685D-02  7.44819D-02  1.48326D-02
   17    2.59090D-01  7.44527D-02 -8.78686D-02 -4.52929D-02 -1.99770D-02  4.29901D-06  1.48338D-02
   18   -1.57239D-01  8.51954D-01 -1.57245D-01  4.21338D-02  8.52064D-01 -1.52106D-05  1.43203D-05  6.19794D+00

 center of mass
 --------------
 x =  -0.00000000 y =  -0.00000000 z =   0.29900680

 moments of inertia (a.u.)
 ------------------
         195.219253198942           0.000000000000          -0.000000000000
           0.000000000000         195.219253198942          -0.000000000000
          -0.000000000000          -0.000000000000          12.090489545714

 Rotational Constants
 --------------------
 A=   4.979135 cm-1  (  7.163704 K)
 B=   0.308372 cm-1  (  0.443669 K)
 C=   0.308372 cm-1  (  0.443669 K)


 Temperature                      =   298.15K
 frequency scaling parameter      =   1.0000

 Zero-Point correction to Energy  =   23.827 kcal/mol  (  0.037971 au)
 Thermal correction to Energy     =   26.666 kcal/mol  (  0.042496 au)
 Thermal correction to Enthalpy   =   27.259 kcal/mol  (  0.043439 au)

 Total Entropy                    =   62.385 cal/mol-K
   - Translational                =   36.575 cal/mol-K (mol. weight =  35.0297)
   - Rotational                   =   18.569 cal/mol-K (symmetry #  =        3)
   - Vibrational                  =    7.242 cal/mol-K

 Cv (constant volume heat capacity) =   11.933 cal/mol-K
   - Translational                  =    2.979 cal/mol-K
   - Rotational                     =    2.979 cal/mol-K
   - Vibrational                    =    5.974 cal/mol-K



          -------------------------------------------------
          NORMAL MODE EIGENVECTORS IN CARTESIAN COORDINATES
          -------------------------------------------------
             (Projected Frequencies expressed in cm-1)

                    1           2           3           4           5           6
 
 P.Frequency     -854.39       -0.00       -0.00       -0.00       -0.00        0.00
 
           1     0.00000     0.24842    -0.00177     0.00006    -0.00596     0.00773
           2    -0.00000    -0.00465    -0.00342    -0.00547     0.00173     0.21231
           3    -0.11286    -0.00119    -0.16885    -0.00455    -0.00266    -0.00247
           4     0.00000     0.11463     0.00107     0.00051    -0.12411     0.00406
           5    -0.00000    -0.00212     0.00170    -0.12386     0.00037     0.09844
           6     0.87713    -0.00119    -0.16885    -0.00455    -0.00266    -0.00247
           7     0.03502     0.26252    -0.00408     0.00146     0.01520     0.21954
           8     0.03502     0.00667    -0.00265     0.01597     0.00371     0.02326
           9     0.14585     0.07319    -0.17336     0.06228     0.06507     0.06414
          10     0.01282     0.29048     0.00009    -0.00205     0.01927    -0.27994
          11    -0.04784    -0.00082    -0.00376     0.01691     0.00262     0.15709
          12     0.14584     0.02852    -0.16548    -0.09630     0.02079    -0.08986
          13    -0.04784     0.27001    -0.00296     0.00052     0.01629     0.08571
          14     0.01282    -0.02129    -0.00682     0.01949    -0.00035     0.52274
          15     0.14585    -0.10530    -0.16772     0.02035    -0.09384     0.01831
          16    -0.00000    -0.00061     0.00352     0.00090    -0.22588     0.00089
          17     0.00000     0.00006     0.00610    -0.22583    -0.00081     0.00036
          18     0.00154    -0.00119    -0.16885    -0.00455    -0.00266    -0.00247

                    7           8           9          10          11          12
 
 P.Frequency        0.00      110.33      110.37      573.97     1018.56     1018.56
 
           1    -0.00372    -0.02353     0.02048     0.00000     0.05733    -0.05693
           2     0.12917     0.02048     0.02353    -0.00000     0.05693     0.05733
           3    -0.00061    -0.00000    -0.00000    -0.16856     0.00000    -0.00000
           4    -0.00082    -0.51781     0.45065     0.00001    -0.49629     0.49283
           5     0.05936     0.45065     0.51781    -0.00001    -0.49283    -0.49629
           6    -0.00061     0.00000     0.00000    -0.13513     0.00000    -0.00000
           7    -0.35164     0.07961    -0.06303    -0.01147    -0.04640     0.08431
           8     0.49005    -0.07015    -0.07342    -0.01147    -0.04580    -0.08463
           9     0.03732     0.03782    -0.54543    -0.25151    -0.51481    -0.00180
          10     0.47023     0.07805    -0.07105    -0.00420    -0.09175     0.07199
          11     0.26984    -0.06213    -0.07498     0.01567    -0.05813    -0.03928
          12    -0.05526     0.45344     0.30547    -0.25152     0.25584     0.44674
          13    -0.13142     0.07188    -0.06569     0.01566    -0.05840     0.03887
          14    -0.33181    -0.06749    -0.08114    -0.00420    -0.09124    -0.07263
          15     0.01611    -0.49127     0.23996    -0.25151     0.25896    -0.44494
          16     0.00167     0.03015    -0.02624    -0.00000     0.00054    -0.00054
          17    -0.00078    -0.02624    -0.03015     0.00000     0.00054     0.00054
          18    -0.00061     0.00000     0.00000     0.15366    -0.00000     0.00000

                   13          14          15          16          17          18
 
 P.Frequency     1331.78     1482.79     1482.79     3091.08     3227.59     3227.59
 
           1     0.00000    -0.05387    -0.05362     0.00000    -0.06430    -0.06399
           2    -0.00000    -0.05362     0.05387    -0.00000    -0.06399     0.06430
           3     0.11275     0.00000     0.00000     0.03038     0.00000     0.00000
           4     0.00000    -0.03829    -0.03811     0.00000    -0.01357    -0.01350
           5    -0.00000    -0.03811     0.03829    -0.00000    -0.01350     0.01357
           6     0.41942     0.00000     0.00000     0.01236    -0.00000    -0.00000
           7    -0.08858    -0.07404     0.52930     0.39518     0.52955    -0.01457
           8    -0.08858    -0.07644    -0.52896     0.39518     0.52962     0.01200
           9    -0.45053    -0.20592     0.00047    -0.12121    -0.18614     0.00045
          10    -0.03242     0.64050     0.33610     0.14465    -0.11225     0.15907
          11     0.12100     0.11676     0.18559    -0.53983     0.35598    -0.62980
          12    -0.45053     0.10256    -0.17857    -0.12121     0.09268    -0.16143
          13     0.12100     0.11592    -0.18611    -0.53983     0.35903     0.62807
          14    -0.03242     0.63897    -0.33900     0.14465    -0.11302    -0.15852
          15    -0.45053     0.10336     0.17810    -0.12121     0.09346     0.16098
          16    -0.00000    -0.00014    -0.00014    -0.00000     0.00015     0.00015
          17     0.00000    -0.00014     0.00014     0.00000     0.00015    -0.00015
          18    -0.02177    -0.00000     0.00000    -0.00056    -0.00000     0.00000



 ----------------------------------------------------------------------------
 Normal Eigenvalue ||    Projected Derivative Dipole Moments (debye/angs)
  Mode   [cm**-1]  ||      [d/dqX]             [d/dqY]           [d/dqZ]
 ------ ---------- || ------------------ ------------------ -----------------
    1     -854.392 ||       0.000              -0.000            -2.946
    2       -0.000 ||       0.235              -0.004            -0.000
    3       -0.000 ||       0.005               0.009             0.000
    4       -0.000 ||       0.001              -0.208             0.000
    5       -0.000 ||      -0.207              -0.002             0.000
    6        0.000 ||       0.006               0.200            -0.000
    7        0.000 ||      -0.005               0.122            -0.000
    8      110.334 ||      -0.445               0.388            -0.000
    9      110.368 ||       0.388               0.445            -0.000
   10      573.968 ||       0.000              -0.000             0.030
   11     1018.556 ||      -0.833              -0.827            -0.000
   12     1018.557 ||       0.827              -0.833             0.000
   13     1331.783 ||      -0.000              -0.000             1.149
   14     1482.793 ||       0.275               0.274            -0.000
   15     1482.793 ||       0.274              -0.275            -0.000
   16     3091.075 ||       0.000               0.000            -0.007
   17     3227.588 ||      -0.236              -0.234             0.000
   18     3227.589 ||      -0.234               0.236             0.000
 ----------------------------------------------------------------------------



  
  
 ----------------------------------------------------------------------------
 Normal Eigenvalue ||           Projected Infra Red Intensities
  Mode   [cm**-1]  || [atomic units] [(debye/angs)**2] [(KM/mol)] [arbitrary]
 ------ ---------- || -------------- ----------------- ---------- -----------
    1     -854.392 ||    0.376102           8.677       366.643     110.239
    2       -0.000 ||    0.002387           0.055         2.327       0.700
    3       -0.000 ||    0.000005           0.000         0.004       0.001
    4       -0.000 ||    0.001868           0.043         1.821       0.548
    5       -0.000 ||    0.001861           0.043         1.814       0.546
    6        0.000 ||    0.001730           0.040         1.687       0.507
    7        0.000 ||    0.000651           0.015         0.635       0.191
    8      110.334 ||    0.015113           0.349        14.733       4.430
    9      110.368 ||    0.015113           0.349        14.733       4.430
   10      573.968 ||    0.000038           0.001         0.037       0.011
   11     1018.556 ||    0.059708           1.378        58.206      17.501
   12     1018.557 ||    0.059708           1.378        58.206      17.501
   13     1331.783 ||    0.057183           1.319        55.745      16.761
   14     1482.793 ||    0.006531           0.151         6.367       1.914
   15     1482.793 ||    0.006531           0.151         6.367       1.914
   16     3091.075 ||    0.000002           0.000         0.002       0.001
   17     3227.588 ||    0.004787           0.110         4.667       1.403
   18     3227.589 ||    0.004787           0.110         4.667       1.403
 ----------------------------------------------------------------------------






 ===============================================================================
      Negative Nuclear Hessian Mode    1  Eigenvalue =   -854.39 cm**(-1)
 -------------------------------------------------------------------------------
   Raw step length:  0.489 angstroms ;  The Raw step for this mode is:
    1 c                    6.0000    -0.00000001     0.00000007     0.05972226
    2 h                    1.0000    -0.00000114     0.00000119    -0.46415793
    3 h                    1.0000    -0.01853290    -0.01853317    -0.07717899
    4 h                    1.0000    -0.00678353     0.02531634    -0.07717758
    5 h                    1.0000     0.02531664    -0.00678381    -0.07717969
    6 f                    9.0000     0.00000006    -0.00000007    -0.00081739


  Geometry after  100.0% step for mode  1; Step length =  0.489 angstroms 
   Maximum component (any atom: x,y, or z) displacement:  0.877
    1 c                    6.0000    -0.00000001     0.00000007    -1.13086014
    2 h                    1.0000    -0.00000114     0.00000119    -0.33439376
    3 h                    1.0000     0.72973122     0.72973094    -1.52348099
    4 h                    1.0000     0.26710015    -0.99683145    -1.52347958
    5 h                    1.0000    -0.99683115     0.26709987    -1.52348168
    6 f                    9.0000     0.00000006    -0.00000007     1.26622259


  Geometry after -100.0% step for mode  1; Step length =  0.489 angstroms 
   Maximum component (any atom: x,y, or z) displacement:  0.877
    1 c                    6.0000     0.00000001    -0.00000007    -1.25030465
    2 h                    1.0000     0.00000114    -0.00000119     0.59392211
    3 h                    1.0000     0.76679702     0.76679729    -1.36912301
    4 h                    1.0000     0.28066720    -1.04746413    -1.36912442
    5 h                    1.0000    -1.04746443     0.28066748    -1.36912231
    6 f                    9.0000    -0.00000006     0.00000007     1.26785736


  Geometry after   50.0% step for mode  1; Step length =  0.244 angstroms 
   Maximum component (any atom: x,y, or z) displacement:  0.439
    1 c                    6.0000    -0.00000001     0.00000003    -1.16072127
    2 h                    1.0000    -0.00000057     0.00000060    -0.10231479
    3 h                    1.0000     0.73899767     0.73899753    -1.48489149
    4 h                    1.0000     0.27049191    -1.00948962    -1.48489079
    5 h                    1.0000    -1.00948947     0.27049177    -1.48489184
    6 f                    9.0000     0.00000003    -0.00000004     1.26663128


  Geometry after  -50.0% step for mode  1; Step length =  0.244 angstroms 
   Maximum component (any atom: x,y, or z) displacement:  0.439
    1 c                    6.0000     0.00000001    -0.00000003    -1.22044352
    2 h                    1.0000     0.00000057    -0.00000060     0.36184314
    3 h                    1.0000     0.75753057     0.75753070    -1.40771250
    4 h                    1.0000     0.27727544    -1.03480596    -1.40771321
    5 h                    1.0000    -1.03480611     0.27727558    -1.40771215
    6 f                    9.0000    -0.00000003     0.00000004     1.26744867


  Geometry after   22.8% step for mode  1; Step length =  0.111 angstroms 
   Maximum component (any atom: x,y, or z) displacement:  0.200
    1 c                    6.0000    -0.00000000     0.00000002    -1.17696476
    2 h                    1.0000    -0.00000026     0.00000027     0.02392873
    3 h                    1.0000     0.74403832     0.74403825    -1.46390004
    4 h                    1.0000     0.27233692    -1.01637526    -1.46389972
    5 h                    1.0000    -1.01637519     0.27233686    -1.46390020
    6 f                    9.0000     0.00000001    -0.00000002     1.26685360


  Geometry after  -22.8% step for mode  1; Step length =  0.111 angstroms 
   Maximum component (any atom: x,y, or z) displacement:  0.200
    1 c                    6.0000     0.00000000    -0.00000002    -1.20420003
    2 h                    1.0000     0.00000026    -0.00000027     0.23559963
    3 h                    1.0000     0.75248991     0.75248998    -1.42870395
    4 h                    1.0000     0.27543043    -1.02792032    -1.42870427
    5 h                    1.0000    -1.02792039     0.27543049    -1.42870379
    6 f                    9.0000    -0.00000001     0.00000002     1.26722635


  Geometry after   11.4% step for mode  1; Step length =  0.056 angstroms 
   Maximum component (any atom: x,y, or z) displacement:  0.100
    1 c                    6.0000    -0.00000000     0.00000001    -1.18377358
    2 h                    1.0000    -0.00000013     0.00000014     0.07684645
    3 h                    1.0000     0.74615122     0.74615119    -1.45510102
    4 h                    1.0000     0.27311030    -1.01926153    -1.45510086
    5 h                    1.0000    -1.01926149     0.27311027    -1.45510110
    6 f                    9.0000     0.00000001    -0.00000001     1.26694679


  Geometry after  -11.4% step for mode  1; Step length =  0.056 angstroms 
   Maximum component (any atom: x,y, or z) displacement:  0.100
    1 c                    6.0000     0.00000000    -0.00000001    -1.19739121
    2 h                    1.0000     0.00000013    -0.00000014     0.18268190
    3 h                    1.0000     0.75037701     0.75037705    -1.43750297
    4 h                    1.0000     0.27465705    -1.02503406    -1.43750313
    5 h                    1.0000    -1.02503409     0.27465708    -1.43750289
    6 f                    9.0000    -0.00000001     0.00000001     1.26713316


 vib:animation  F

 Task  times  cpu:       67.2s     wall:       67.2s


                                NWChem Input Module
                                -------------------


 Summary of allocated global arrays
-----------------------------------
  No active global arrays



                         GA Statistics for process    0
                         ------------------------------

       create   destroy   get      put      acc     scatter   gather  read&inc
calls: 7072     7072     8.51e+05 5.99e+04 6.48e+05 1914        0     1.71e+04 
number of processes/call 1.04e+00 1.48e+00 1.00e+00 0.00e+00 0.00e+00
bytes total:             2.64e+08 4.08e+07 2.44e+08 0.00e+00 0.00e+00 1.37e+05
bytes remote:            9.54e+06 5.11e+06 3.12e+07 -1.22e+03 0.00e+00 0.00e+00
Max memory consumed for GA by this process: 1882120 bytes

MA_summarize_allocated_blocks: starting scan ...
MA_summarize_allocated_blocks: scan completed: 0 heap blocks, 0 stack blocks
MA usage statistics:

	allocation statistics:
					      heap	     stack
					      ----	     -----
	current number of blocks	         0	         0
	maximum number of blocks	        26	        56
	current total bytes		         0	         0
	maximum total bytes		   4142488	  67393128
	maximum total K-bytes		      4143	     67394
	maximum total M-bytes		         5	        68


                                     CITATION
                                     --------
                Please cite the following reference when publishing
                           results obtained with NWChem:

                 M. Valiev, E.J. Bylaska, N. Govind, K. Kowalski,
              T.P. Straatsma, H.J.J. van Dam, D. Wang, J. Nieplocha,
                        E. Apra, T.L. Windus, W.A. de Jong
                 "NWChem: a comprehensive and scalable open-source
                  solution for large scale molecular simulations"
                      Comput. Phys. Commun. 181, 1477 (2010)
                           doi:10.1016/j.cpc.2010.04.018

                                      AUTHORS
                                      -------
          E. Apra, E. J. Bylaska, W. A. de Jong, N. Govind, K. Kowalski,
       T. P. Straatsma, M. Valiev, H. J. J. van Dam, D. Wang, T. L. Windus,
        J. Hammond, J. Autschbach, K. Bhaskaran-Nair, J. Brabec, K. Lopata,
    S. A. Fischer, S. Krishnamoorthy, M. Jacquelin, W. Ma, M. Klemm, O. Villa,
      Y. Chen, V. Anisimov, F. Aquino, S. Hirata, M. T. Hackler, V. Konjkov,
            D. Mejia-Rodriguez, T. Risthaus, M. Malagoli, A. Marenich,
   A. Otero-de-la-Roza, J. Mullin, P. Nichols, R. Peverati, J. Pittner, Y. Zhao,
        P.-D. Fan, A. Fonari, M. J. Williamson, R. J. Harrison, J. R. Rehr,
      M. Dupuis, D. Silverstein, D. M. A. Smith, J. Nieplocha, V. Tipparaju,
    M. Krishnan, B. E. Van Kuiken, A. Vazquez-Mayagoitia, L. Jensen, M. Swart,
      Q. Wu, T. Van Voorhis, A. A. Auer, M. Nooijen, L. D. Crosby, E. Brown,
      G. Cisneros, G. I. Fann, H. Fruchtl, J. Garza, K. Hirao, R. A. Kendall,
      J. A. Nichols, K. Tsemekhman, K. Wolinski, J. Anchell, D. E. Bernholdt,
      P. Borowski, T. Clark, D. Clerc, H. Dachsel, M. J. O. Deegan, K. Dyall,
    D. Elwood, E. Glendening, M. Gutowski, A. C. Hess, J. Jaffe, B. G. Johnson,
     J. Ju, R. Kobayashi, R. Kutteh, Z. Lin, R. Littlefield, X. Long, B. Meng,
      T. Nakajima, S. Niu, L. Pollack, M. Rosing, K. Glaesemann, G. Sandrone,
      M. Stave, H. Taylor, G. Thomas, J. H. van Lenthe, A. T. Wong, Z. Zhang.

 Total times  cpu:       78.6s     wall:       78.6s
